Program Version,EnergyPlus, Version 9.5.0-de239b2e5f, YMD=2021.12.10 06:50
1,5,Environment Title[],Latitude[deg],Longitude[deg],Time Zone[],Elevation[m]
2,8,Day of Simulation[],Month[],Day of Month[],DST Indicator[1=yes 0=no],Hour[],StartMinute[],EndMinute[],DayType
3,5,Cumulative Day of Simulation[],Month[],Day of Month[],DST Indicator[1=yes 0=no],DayType  ! When Daily Report Variables Requested
4,2,Cumulative Days of Simulation[],Month[]  ! When Monthly Report Variables Requested
5,1,Cumulative Days of Simulation[] ! When Run Period Report Variables Requested
6,1,Calendar Year of Simulation[] ! When Annual Report Variables Requested
7,1,Environment,Site Outdoor Air Drybulb Temperature [C] !TimeStep
140,1,TZCUB5,Zone Mean Air Temperature [C] !TimeStep
141,1,TZCUB6,Zone Mean Air Temperature [C] !TimeStep
142,1,TZCUB7,Zone Mean Air Temperature [C] !TimeStep
143,1,TZLABORATORIOS,Zone Mean Air Temperature [C] !TimeStep
144,1,TZTECHOCUB5,Zone Mean Air Temperature [C] !TimeStep
145,1,TZTECHOCUB6,Zone Mean Air Temperature [C] !TimeStep
146,1,TZTECHOCUB7,Zone Mean Air Temperature [C] !TimeStep
632,1,TZCUB7 PERSONAS,Zone Thermal Comfort Fanger Model PMV [] !TimeStep
633,1,TZCUB7 PERSONAS,Zone Thermal Comfort Fanger Model PPD [%] !TimeStep
634,1,TZCUB6 PERSONAS,Zone Thermal Comfort Fanger Model PMV [] !TimeStep
635,1,TZCUB6 PERSONAS,Zone Thermal Comfort Fanger Model PPD [%] !TimeStep
636,1,TZCUB5 PERSONAS,Zone Thermal Comfort Fanger Model PMV [] !TimeStep
637,1,TZCUB5 PERSONAS,Zone Thermal Comfort Fanger Model PPD [%] !TimeStep
End of Data Dictionary
1,RUN PERIOD 1,  18.51, -99.14,  -6.00,1219.00
2,1, 5, 3, 0, 1, 0.00,10.00,Friday
7,23.0
140,26.334446501404189
141,26.18854411243815
142,25.9211942727164
143,26.64456704821088
144,26.720872430081348
145,26.852557122732457
146,25.939035084980998
632,-2.7168707463163956
633,96.93944863135218
634,-1.8938783295484297
635,71.75386531274693
636,-1.7932820053346095
637,66.67253664947197
2,1, 5, 3, 0, 1,10.00,20.00,Friday
7,23.0
140,26.27199819141603
141,26.132094697704696
142,25.876972352326854
143,26.594996860344318
144,26.67454166726746
145,26.817080917396333
146,25.531765835176168
632,-2.7428455386885695
633,97.23560602678345
634,-1.9240735688199349
635,73.21983599615011
636,-1.8287607070691417
637,68.4960209535057
2,1, 5, 3, 0, 1,20.00,30.00,Friday
7,23.0
140,26.157453706790748
141,26.028595299576307
142,25.86633419578214
143,26.503749094317905
144,26.597490700888469
145,26.74856090761613
146,25.231051291977086
632,-2.750456061088201
633,97.31800403286519
634,-1.9703848890139922
635,75.4061773519874
636,-1.8844058272224496
637,71.28783892586687
2,1, 5, 3, 0, 1,30.00,40.00,Friday
7,22.8
140,26.072765221342615
141,25.95138555156811
142,25.767719796674574
143,26.427860125221096
144,26.528246146563956
145,26.689688765838637
146,25.448618500782549
632,-2.7932291053296267
633,97.74598258661487
634,-2.0109608815892958
635,77.25467596226807
636,-1.9287806212344672
637,73.44557634556304
2,1, 5, 3, 0, 1,40.00,50.00,Friday
7,22.7
140,26.064005814605588
141,25.945910115848827
142,25.68753491819667
143,26.390209918238634
144,26.467017637259329
145,26.642443236101465
146,25.025137424222885
632,-2.8316138204127569
633,98.082275434465
634,-2.0206325346661409
635,77.68547086506112
636,-1.942694268165026
637,74.10828032473106
2,1, 5, 3, 0, 1,50.00,60.00,Friday
7,22.6
140,26.00559230550058
141,25.8984350021746
142,25.520520204996826
143,26.30272815197527
144,26.38715110947484
145,26.572340175699837
146,25.472675818137384
632,-2.895514135777953
633,98.55207843386634
634,-2.047947597826574
635,78.88087156884981
636,-1.977451375528552
637,75.732762975404
2,1, 5, 3, 0, 2, 0.00,10.00,Friday
7,22.5
140,25.954317593877549
141,25.85853668501791
142,25.54627564329837
143,26.229744318839779
144,26.3159778549977
145,26.51390645715923
146,24.97967414262392
632,-2.897103502872822
633,98.56244474544883
634,-2.071901075389433
635,79.9025362069216
636,-2.0091400193692987
637,77.1731393585244
2,1, 5, 3, 0, 2,10.00,20.00,Friday
7,22.4
140,25.909869901338128
141,25.825241936069685
142,25.585928247820794
143,26.15792213656131
144,26.24230594637744
145,26.453358211740324
146,25.123817561106884
632,-2.8939296869091919
633,98.54168376277875
634,-2.0928429878124579
635,80.77471827429928
636,-2.0377873507497039
637,78.43994285149023
2,1, 5, 3, 0, 2,20.00,30.00,Friday
7,22.3
140,25.868720215048258
141,25.795107066213434
142,25.611630152889658
143,26.080394509019859
144,26.16343498620325
145,26.387749355364194
146,24.979521178335867
632,-2.8935948195311904
633,98.53947913989382
634,-2.112508693588739
635,81.57543068226325
636,-2.065154724122609
637,79.61735790005221
2,1, 5, 3, 0, 2,30.00,40.00,Friday
7,22.4
140,25.834374036854159
141,25.77092555838454
142,25.596660025612406
143,26.000753059771229
144,26.088580491675424
145,26.32576082932539
146,24.90998742754645
632,-2.9067048402815898
633,98.62379029694515
634,-2.1279952123121839
635,82.19324833165099
636,-2.088083072376159
637,80.57822984236391
2,1, 5, 3, 0, 2,40.00,50.00,Friday
7,22.5
140,25.80726138564645
141,25.75245795384049
142,25.497014338524257
143,25.92122877348686
144,26.015059266357818
145,26.26538000753189
146,25.168753998247874
632,-2.948209278579775
633,98.86490163764111
634,-2.1409896498129474
635,82.70285748703475
636,-2.1079255939697014
637,81.39043060354106
2,1, 5, 3, 0, 2,50.00,60.00,Friday
7,22.3
140,25.774249372573477
141,25.728361859165046
142,25.401668985547376
143,25.841557145052684
144,25.938202433508374
145,26.201575713025379
146,24.954532942939556
632,-2.9925586747511279
633,99.08294667361501
634,-2.1594777305088428
635,83.41390396704887
636,-2.1333293971827187
637,82.4034180895796
2,1, 5, 3, 0, 3, 0.00,10.00,Friday
7,22.1
140,25.747465076101955
141,25.707413124935337
142,25.456306917193659
143,25.789321048368764
144,25.868838279703824
145,26.14523085009153
146,24.57751100767505
632,-2.9878094324061088
633,99.06140473405452
634,-2.177062080282091
635,84.07473346418817
636,-2.156574113297591
637,83.30332906623259
2,1, 5, 3, 0, 3,10.00,20.00,Friday
7,22.0
140,25.70017377467446
141,25.671000844000117
142,25.366564175881697
143,25.70490141079636
144,25.789995469607726
145,26.07845684521722
146,24.630213157362513
632,-3.027134471862916
633,99.22770661314861
634,-2.200505557335867
635,84.93199653957456
636,-2.1877047830726288
637,84.46729169048672
2,1, 5, 3, 0, 3,20.00,30.00,Friday
7,22.0
140,25.646266403916618
141,25.631016100493296
142,25.3503036960776
143,25.604803301266164
144,25.708207889613566
145,26.010528842345957
146,24.368523938917428
632,-3.0431455310823316
633,99.28795238584121
634,-2.223544197179059
635,85.74768734438078
636,-2.219703663220353
637,85.61356772767116
2,1, 5, 3, 0, 3,30.00,40.00,Friday
7,21.9
140,25.596308252458397
141,25.594937219618214
142,25.254017471465166
143,25.51368318520043
144,25.632770173128177
145,25.94910878461118
146,24.233285315005504
632,-3.086991300698723
633,99.4330700376828
634,-2.245942160211052
635,86.51499001898316
636,-2.2510984492327545
637,86.68802207390002
2,1, 5, 3, 0, 3,40.00,50.00,Friday
7,21.9
140,25.571061054229515
141,25.577023557933889
142,25.078602523192975
143,25.456023470006053
144,25.561500806894434
145,25.891722781808317
146,24.94203533894238
632,-3.154645209033155
633,99.60755672027843
634,-2.26094679959371
635,87.0147391347713
636,-2.272269254486376
637,87.38423354289295
2,1, 5, 3, 0, 3,50.00,60.00,Friday
7,21.7
140,25.539575652222106
141,25.553574330286386
142,25.007880772065297
143,25.3947718852371
144,25.493099662254339
145,25.83592301660099
146,24.51629623570365
632,-3.193036902257022
633,99.68434093370002
634,-2.279681141692223
635,87.62255640893915
636,-2.297509527268303
637,88.18427325028056
2,1, 5, 3, 0, 4, 0.00,10.00,Friday
7,21.7
140,25.47225974222075
141,25.503463876954976
142,24.71569915374795
143,25.278641060532317
144,25.40544462093498
145,25.759758996204306
146,25.3143640729379
632,-3.3022579473142215
633,99.83627871276228
634,-2.308111907861889
635,88.51058386657393
636,-2.3360460449699218
637,89.34268080208561
2,1, 5, 3, 0, 4,10.00,20.00,Friday
7,21.8
140,25.418127514545384
141,25.464724265840589
142,24.548951863710607
143,25.18146870289193
144,25.330856703994589
145,25.698132355021966
146,25.127629991233545
632,-3.37000292978805
633,99.8941235875665
634,-2.3275908308200785
635,89.09504444933487
636,-2.364932794280284
637,90.16110336477867
2,1, 5, 3, 0, 4,20.00,30.00,Friday
7,21.5
140,25.39413104276865
141,25.446564501759707
142,24.52945557979458
143,25.136235963316666
144,25.258689462915507
145,25.638071445573674
146,24.828735512235555
632,-3.3926631672111875
633,99.9089522837663
634,-2.3478777601963167
635,89.683057837359
636,-2.3908845154375948
637,90.86010704982225
2,1, 5, 3, 0, 4,30.00,40.00,Friday
7,21.4
140,25.3471171955209
141,25.410708644831776
142,24.455816707801593
143,25.05450677421077
144,25.18034381366093
145,25.570216212450008
146,24.827589012235323
632,-3.4316269070985325
633,99.930186113345
634,-2.3691104012910726
635,90.2759373488647
636,-2.4217498159938386
637,91.64718141823176
2,1, 5, 3, 0, 4,40.00,50.00,Friday
7,21.1
140,25.30017355499325
141,25.37390177090387
142,24.356766279435793
143,24.981469722177228
144,25.1018778200808
145,25.501889262976655
146,24.41193714813526
632,-3.481068582021263
633,99.95071880356801
634,-2.395503181420832
635,90.98093288194372
636,-2.4531949925752256
637,92.40022693090308
2,1, 5, 3, 0, 4,50.00,60.00,Friday
7,21.2
140,25.221617320335896
141,25.313123521645985
142,24.215618712375539
143,24.8617857796123
144,25.023098492095707
145,25.43209346598028
146,24.87541840994524
632,-3.5451080552143088
633,99.96921375546592
634,-2.427489547427174
635,91.78828843144702
636,-2.495710386046681
637,93.34164735419813
2,1, 5, 3, 0, 5, 0.00,10.00,Friday
7,21.0
140,25.15633834972598
141,25.26210055707512
142,24.089761312036019
143,24.766558673388837
144,24.945385055770715
145,25.362829679202794
146,24.838408500870086
632,-3.6053575688053289
633,99.9806269258548
634,-2.4587542414489564
635,92.52829785647062
636,-2.534144517093371
637,94.11887322386078
2,1, 5, 3, 0, 5,10.00,20.00,Friday
7,20.8
140,25.128023317482037
141,25.241071850089907
142,24.216179925720554
143,24.712157736417657
144,24.872987492966279
145,25.298152645280994
146,23.830229304746646
632,-3.576554911776404
633,99.9757639974022
634,-2.4760817759820266
635,92.91783678823535
636,-2.559435693834599
637,94.5932737819234
2,1, 5, 3, 0, 5,20.00,30.00,Friday
7,20.9
140,25.090790504417837
141,25.21493784742957
142,24.27399090965807
143,24.633255098671133
144,24.800607387701839
145,25.23329039969201
146,24.00059392146648
632,-3.565725972216798
633,99.97366660263093
634,-2.491254879441796
635,93.24705998409572
636,-2.5825365859376228
637,95.00165507672318
2,1, 5, 3, 0, 5,30.00,40.00,Friday
7,20.8
140,25.037712053548029
141,25.17642249091977
142,24.186801517844854
143,24.53408418517943
144,24.71864016780744
145,25.159209282392525
146,24.135186032039507
632,-3.6037560604736584
633,99.98038176536203
634,-2.5165858166798329
635,93.7723378690736
636,-2.617100659502572
637,95.56963704394156
2,1, 5, 3, 0, 5,40.00,50.00,Friday
7,21.1
140,25.022511257242316
141,25.169941107327675
142,24.268209731733188
143,24.476251343097549
144,24.656470976352759
145,25.105544877253295
146,23.719485528681245
632,-3.5848029501760827
633,99.97725869523133
634,-2.5216822864881065
635,93.87438910107722
636,-2.628878678075227
637,95.7517349947453
2,1, 5, 3, 0, 5,50.00,60.00,Friday
7,20.8
140,24.980632421795506
141,25.14250308746805
142,24.338986328906516
143,24.386700022031559
144,24.57748024665917
145,25.03434670016601
146,23.51026439666255
632,-3.5735518698204995
633,99.97519806695871
634,-2.5433466913386906
635,94.29483296002282
636,-2.659821008891874
637,96.20337267286304
2,1, 5, 3, 0, 6, 0.00,10.00,Friday
7,20.8
140,24.92272143910262
141,25.101496558086525
142,24.32554399803489
143,24.280676762370257
144,24.494791558164477
145,24.959972415291543
146,23.73616772068104
632,-3.585676587904205
633,99.97741201725289
634,-2.5684745326945239
635,94.7558628512086
636,-2.695269629539211
637,96.67496489940558
2,1, 5, 3, 0, 6,10.00,20.00,Friday
7,20.1
140,24.86718287626946
141,25.052499569673637
142,24.02753134938783
143,24.22503393357157
144,24.417087391342734
145,24.888601001829377
146,23.615211015402328
632,-3.7034851257246959
633,99.9912837673397
634,-2.6064633391511746
635,95.40022730227557
636,-2.738517225538936
637,97.18787147384873
2,1, 5, 3, 0, 6,20.00,30.00,Friday
7,20.1
140,24.79433400125658
141,24.989572534336927
142,23.75193614329374
143,24.137238685667446
144,24.34178221083495
145,24.821098115066098
146,23.86587851082036
632,-3.8076340570932296
633,99.99649325484278
634,-2.642943815910964
635,95.96177670336548
636,-2.779645732772541
637,97.61637382642367
2,1, 5, 3, 0, 6,30.00,40.00,Friday
7,19.5
140,24.733109468141568
141,24.937840754323177
142,23.65471459037224
143,24.061481867074265
144,24.25622206894194
145,24.743732601524813
146,23.228188482147048
632,-3.859505017021726
633,99.99782709788193
634,-2.680082094275663
635,96.4787488849818
636,-2.8231059163594596
637,98.01143549129462
2,1, 5, 3, 0, 6,40.00,50.00,Friday
7,19.6
140,24.68378128922261
141,24.89801624667806
142,23.910296175869193
143,23.98362070942909
144,24.18942948807036
145,24.684548623008184
146,22.321446957004924
632,-3.786345951739706
633,99.99575300387778
634,-2.7023994562522617
635,96.7641330428256
636,-2.85348105148239
637,98.25511557379184
2,1, 5, 3, 0, 6,50.00,60.00,Friday
7,19.5
140,24.641490165092315
141,24.865638877943355
142,23.791607732193375
143,23.91086327652829
144,24.113984472454633
145,24.61735695904193
146,22.86981677550143
632,-3.8320952669557899
633,99.99719583077966
634,-2.723817841979962
635,97.02095769886242
636,-2.881856780135203
637,98.46047251563965
2,1, 5, 3, 0, 7, 0.00,10.00,Friday
7,19.6
140,24.581164150626646
141,24.820371673636087
142,23.667874193219338
143,23.80355695877767
144,24.032645539143894
145,24.544080697154297
146,23.164603813048193
632,-3.8835851949114534
633,99.99827017975461
634,-2.7489545636355428
635,97.30190139604096
636,-2.913880986119563
637,98.66823229121724
2,1, 5, 3, 0, 7,10.00,20.00,Friday
7,19.9
140,24.554835875170974
141,24.804685133841717
142,23.959688658421368
143,23.72857034838201
144,23.95768428204224
145,24.477633822173237
146,22.36626699604797
632,-3.79702961760769
633,99.9961408497263
634,-2.7592487203925768
635,97.41079767042459
636,-2.9312278154560569
637,98.77083357074653
2,1, 5, 3, 0, 7,20.00,30.00,Friday
7,19.6
140,24.51016425358724
141,24.775552656324355
142,24.155973410119363
143,23.631420466051048
144,23.880946605051848
145,24.409057227503714
146,22.622257604789384
632,-3.739182506024394
633,99.99357268564003
634,-2.7798588002349766
635,97.6184512430731
636,-2.9612397600260116
637,98.93299254885307
2,1, 5, 3, 0, 7,30.00,40.00,Friday
7,19.4
140,24.470895784392107
141,24.74628729839896
142,24.04243218943124
143,23.56078990354072
144,23.802521288578249
145,24.338286848323194
146,22.1254987200447
632,-3.787660263380331
633,99.99580258378043
634,-2.799919686377269
635,97.80773824997518
636,-2.9878536725637718
637,99.0616073245553
2,1, 5, 3, 0, 7,40.00,50.00,Friday
7,19.5
140,24.428129990259277
141,24.716824625727126
142,23.800203287788379
143,23.4606779145252
144,23.730028040761569
145,24.273842513137976
146,22.10053082120589
632,-3.8756017013126216
633,99.99813354810779
634,-2.8117842006281155
635,97.91394484330178
636,-3.009434451604028
637,99.15619429512991
2,1, 5, 3, 0, 7,50.00,60.00,Friday
7,19.8
140,24.41783760963365
141,24.716609101933643
142,23.720892329500495
143,23.382248384371917
144,23.65982432943661
145,24.212947607756424
146,22.908440263405504
632,-3.906947277264531
633,99.99861850286509
634,-2.8109197374458327
635,97.9063474687821
636,-3.0150633285079655
637,99.17951240533971
2,1, 5, 3, 0, 8, 0.00,10.00,Friday
7,20.1
140,24.416458677439946
141,24.722591183915687
142,23.55579571086971
143,23.315179887732446
144,23.602036676818693
145,24.162826405423869
146,23.32665811578961
632,-3.9635555419226407
633,99.99921071602154
634,-2.8078294429816199
635,97.87900814144382
636,-3.016512823339487
637,99.18542910003078
2,1, 5, 3, 0, 8,10.00,20.00,Friday
7,20.1
140,24.406517050423035
141,24.72882265076033
142,23.435461959971798
143,23.18690029337643
144,23.52928687947609
145,24.099285223352426
146,23.208831914260118
632,-4.00786180345718
633,99.99949834789199
634,-2.8071911520827816
635,97.87332609069391
636,-3.021657078732445
637,99.20614033859639
2,1, 5, 3, 0, 8,20.00,30.00,Friday
7,20.7
140,24.42834308571085
141,24.758532054338379
142,23.68988566285677
143,23.13437171605916
144,23.481312834967004
145,24.06079167454017
146,22.608721971002958
632,-3.9203507467438545
633,99.99878766622963
634,-2.787596352877889
635,97.69293044886011
636,-3.0067986631540184
637,99.14508664979148
2,1, 5, 3, 0, 8,30.00,40.00,Friday
7,21.2
140,24.45478397646658
141,24.79704048128111
142,23.96556359412319
143,23.075098014513367
144,23.434240315262949
145,24.02139670385327
146,23.056469171366126
632,-3.824614617174372
633,99.9969961853907
634,-2.7654406542434697
635,97.47462102724205
636,-2.9913667989205496
637,99.07757951277979
2,1, 5, 3, 0, 8,40.00,50.00,Friday
7,22.0
140,24.505373467501927
141,24.877765033988909
142,24.309087360472029
143,22.96363582855746
144,23.382726958434128
145,23.976882610076929
146,23.279588938990935
632,-3.7012573944573714
633,99.99111872676451
634,-2.7271557627147549
635,97.05951781970954
636,-2.9671308289276259
637,98.96264949126618
2,1, 5, 3, 0, 8,50.00,60.00,Friday
7,22.9
140,24.556314107736097
141,24.96334141248454
142,24.46256368893788
143,22.88284256387527
144,23.34530973286151
145,23.945130683050047
146,23.517538001968189
632,-3.6408383863528388
633,99.9853925142455
634,-2.6859716458658835
635,96.55586237654151
636,-2.9412583877803826
637,98.82714054838829
2,1, 5, 3, 0, 9, 0.00,10.00,Friday
7,24.3
140,24.61982081195558
141,25.057286234855
142,24.56025008731583
143,22.834451285922456
144,23.320653436302526
145,23.926249783132989
146,23.762540049943646
632,-3.5879587998034996
633,99.977808130571
634,-2.6352704403298956
635,95.84817859977462
636,-2.90497293814953
637,98.61288537649611
2,1, 5, 3, 0, 9,10.00,20.00,Friday
7,24.3
140,24.661282028374079
141,25.120372653325537
142,24.617944452990178
143,22.802312706832369
144,23.293811522682924
145,23.90282611659506
146,23.682440652386807
632,-3.5653077242901367
633,99.97358239644544
634,-2.6115129233309526
635,95.4812369753661
636,-2.8904732959891925
637,98.51879774509135
2,1, 5, 3, 0, 9,20.00,30.00,Friday
7,24.4
140,24.67768436148616
141,25.15020888144918
142,24.65237931278813
143,22.77919618226413
144,23.27616444897448
145,23.886408693762939
146,23.671490788006968
632,-3.5467369022077799
633,99.96958880348096
634,-2.600647433807756
635,95.30559245336878
636,-2.8833098533500864
637,98.47043681910977
2,1, 5, 3, 0, 9,30.00,40.00,Friday
7,24.7
140,24.688101292919958
141,25.16955881789189
142,24.69194240357708
143,22.767646772795698
144,23.271963181151557
145,23.882185888651259
146,23.824238896157018
632,-3.525902369896289
633,99.96446578804118
634,-2.5883900896721765
635,95.10143088275473
636,-2.8753316410862275
637,98.41507638996788
2,1, 5, 3, 0, 9,40.00,50.00,Friday
7,25.1
140,24.71160940742621
141,25.198943749599235
142,24.75002789681531
143,22.771595175161595
144,23.280890983976034
145,23.8890293656614
146,23.963384096076167
632,-3.4957910304046049
633,99.95568437868318
634,-2.5687219795895137
635,94.76026301251332
636,-2.857960168838159
637,98.28892222117936
2,1, 5, 3, 0, 9,50.00,60.00,Friday
7,25.4
140,24.747648308121
141,25.237386938314005
142,24.83878482268095
143,22.79223767046334
144,23.298601982363587
145,23.902598748607237
146,23.877316486602895
632,-3.451404195153946
633,99.93917207582048
634,-2.5468818843308256
635,94.36140810983606
636,-2.8364030930472117
637,98.12125563560963
2,1, 5, 3, 0,10, 0.00,10.00,Friday
7,25.9
140,26.160034973668887
141,26.629734380666315
142,26.20837923738359
143,22.822443167546543
144,23.32474865281149
145,23.924802867222977
146,24.203857552783736
632,-0.30219517853041957
633,6.897762806840134
634,0.26591308912166519
635,6.4681905172492979
636,0.10300326083011262
637,5.219729565770152
2,1, 5, 3, 0,10,10.00,20.00,Friday
7,26.2
140,26.470965900346575
141,26.924636041052258
142,26.49224460759519
143,22.863238673443445
144,23.363912849085354
145,23.950318106887996
146,24.335446665516686
632,-0.22314814212543364
633,6.033023998754686
634,0.34716673379565668
635,7.507506803198197
636,0.1876663382624207
637,5.730174180992165
2,1, 5, 3, 0,10,20.00,30.00,Friday
7,26.3
140,26.704999506159028
141,27.14889724881182
142,26.697884495725025
143,22.91732478783841
144,23.409822982505525
145,23.980254301066148
146,24.3054331300152
632,-0.1761870110590242
633,5.643462408094862
634,0.3965485842295586
635,8.27611416944805
636,0.23944228861423506
637,6.189770936057272
2,1, 5, 3, 0,10,30.00,40.00,Friday
7,26.4
140,27.126626308551367
141,27.553499613268174
142,27.044905720173654
143,23.023094232084796
144,23.47636636060615
145,24.02392909224591
146,24.264059113594585
632,-0.09523276938482425
633,5.187814739440057
634,0.48759210023453666
635,9.96695195003143
636,0.33438943451161787
637,7.325542106988351
2,1, 5, 3, 0,10,40.00,50.00,Friday
7,26.4
140,27.291710907537735
141,27.708166912633858
142,27.158902130746005
143,23.131409887124076
144,23.547299137509638
145,24.07310816380194
146,24.25326262581193
632,-0.057472927529371147
633,5.068386723913974
634,0.5325849863503142
635,10.934452414470073
636,0.38211483309695756
637,8.040699643751694
2,1, 5, 3, 0,10,50.00,60.00,Friday
7,25.9
140,27.277825763275226
141,27.68771376429236
142,27.100907204229406
143,23.236746578061493
144,23.620945304329397
145,24.12628989908076
146,24.058506594384935
632,-0.06164587654773474
633,5.078679733935189
634,0.538070408662241
635,11.058398319355732
636,0.38958097944001715
637,8.16136106993217
2,1, 5, 3, 0,11, 0.00,10.00,Friday
7,26.2
140,27.270441942864605
141,27.67311016857135
142,27.095851062044795
143,23.343957147227817
144,23.711784930751017
145,24.19581879907889
146,24.08380067431163
632,-0.056205364879730389
633,5.065403035048448
634,0.549091987032794
635,11.311377602385491
636,0.40295224330643689
637,8.38341022671841
2,1, 5, 3, 0,11,10.00,20.00,Friday
7,26.9
140,27.339452319919375
141,27.73557285296727
142,27.24492065965881
143,23.424610444226628
144,23.815967705619049
145,24.278680592224175
146,24.694778058138426
632,-0.013374008277334983
633,5.003702605999123
634,0.5744920669691743
635,11.914441227827894
636,0.43078827532607036
637,8.87022629803316
2,1, 5, 3, 0,11,20.00,30.00,Friday
7,27.2
140,27.390895985764784
141,27.780097289406297
142,27.345616299689789
143,23.517065986776925
144,23.908851498990516
145,24.350501907976246
146,24.987698172947593
632,0.017599528842852334
633,5.006411932784644
634,0.5929984664865423
635,12.371455629803379
636,0.45166470086775525
637,9.257150643134864
2,1, 5, 3, 0,11,30.00,40.00,Friday
7,27.3
140,27.45856835034263
141,27.83605021358842
142,27.452221412214198
143,23.662826309326097
144,24.027471668936604
145,24.44334319989669
146,25.19881099556504
632,0.04901311613067972
633,5.04973387191923
634,0.614587064961131
635,12.923367487075652
636,0.4767648343646384
637,9.74718508176116
2,1, 5, 3, 0,11,40.00,50.00,Friday
7,27.4
140,27.506316657988515
141,27.874000720077
142,27.509359632849099
143,23.766525254102115
144,24.14681928468967
145,24.536909805374348
146,24.82883966572246
632,0.06675581572477403
633,5.092266866596859
634,0.6311151305543965
635,13.359577212982942
636,0.49681997610260616
637,10.15824931619133
2,1, 5, 3, 0,11,50.00,60.00,Friday
7,27.6
140,27.591270199864576
141,27.942291846018756
142,27.624474913990068
143,23.945955660312085
144,24.281980684129839
145,24.644477301590365
146,25.227427618734497
632,0.09706624859956055
633,5.195119259586008
634,0.6587447036090041
635,14.115239569617998
636,0.5291033023909841
637,10.856458063396829
2,1, 5, 3, 0,12, 0.00,10.00,Friday
7,28.5
140,27.667043566786157
141,28.00708503160265
142,27.802030717827387
143,24.072675003486759
144,24.42753250897845
145,24.76332888372434
146,25.53545364167013
632,0.14820049803954184
633,5.4550961280908158
634,0.6912719445003188
635,15.047235471558622
636,0.5653400979335995
637,11.693925256432309
2,1, 5, 3, 0,12,10.00,20.00,Friday
7,28.0
140,27.717899117915004
141,28.04585811119037
142,27.855208254401416
143,24.19601968671407
144,24.556377511902935
145,24.864647256445964
146,25.630809945194377
632,0.16381471420955757
633,5.556162815326246
634,0.7062148979774729
635,15.490726801688084
636,0.5838914489210797
637,12.144701132523267
2,1, 5, 3, 0,12,20.00,30.00,Friday
7,29.1
140,27.771458939888015
141,28.090676960344149
142,27.998333784476026
143,24.290174099825124
144,24.714883033688424
145,24.9936971858128
146,25.981200796451028
632,0.21094996897992758
633,5.922964969646401
634,0.7320481431006125
635,16.28013868740176
636,0.6133954096478016
637,12.892375405614928
2,1, 5, 3, 0,12,30.00,40.00,Friday
7,29.2
140,27.84306600830595
141,28.14795877619516
142,28.11837474029501
143,24.43113488015583
144,24.880998588299457
145,25.11997793449526
146,26.157519635566975
632,0.24323317099116455
633,6.227836392175192
634,0.7523757170057733
635,16.921475029093345
636,0.6381555589811617
637,13.548988283206711
2,1, 5, 3, 0,12,40.00,50.00,Friday
7,29.9
140,27.899990326426253
141,28.193200343085537
142,28.183339468848044
143,24.54128100487439
144,25.05142831152795
145,25.25087283789997
146,26.676287460555256
632,0.27033580097184059
633,6.517583071046076
634,0.7747821476908274
635,17.648892383529757
636,0.664519286669323
637,14.277353677998548
2,1, 5, 3, 0,12,50.00,60.00,Friday
7,30.5
140,28.003052570686515
141,28.27536365409521
142,28.32577695803272
143,24.721297020023195
144,25.266947375379475
145,25.418049808468337
146,26.966123518923064
632,0.31208225895104926
633,7.024465634314993
634,0.8081308829459026
635,18.771113111848054
636,0.7036737319991026
637,15.414627422490725
2,1, 5, 3, 0,13, 0.00,10.00,Friday
7,31.4
140,28.068299432689117
141,28.32926284433256
142,28.503273534315328
143,24.806494585452506
144,25.4439745542388
145,25.57317305598168
146,27.660980877749105
632,0.3651338793252476
633,7.775126655495413
634,0.8352102452606556
635,19.71691662995873
636,0.7350314267677344
637,16.373151212616564
2,1, 5, 3, 0,13,10.00,20.00,Friday
7,30.8
140,28.10986036716705
141,28.35812402496557
142,28.56717163562127
143,24.907916196641986
144,25.594929084747215
145,25.695053014416439
146,27.090406777136267
632,0.38507826753643878
633,8.088307159071477
634,0.8444208616567245
635,20.04562184632232
636,0.7488774111837889
637,16.80984102286459
2,1, 5, 3, 0,13,20.00,30.00,Friday
7,30.6
140,28.19063540245203
141,28.41579265360321
142,28.578721240621399
143,25.086670422726529
144,25.802860793800805
145,25.867452742073139
146,27.519318200259688
632,0.3959782063236863
633,8.266642319557136
634,0.8646454616755183
635,20.779778712073595
636,0.7755529806492041
637,17.674298407856896
2,1, 5, 3, 0,13,30.00,40.00,Friday
7,30.8
140,28.25925658951279
141,28.46506303399895
142,28.61524468943977
143,25.226684991995709
144,25.988074276558135
145,26.023154205640926
146,27.646162099408075
632,0.41466179968218566
633,8.584148384622737
634,0.8886539652977468
635,21.673225760398524
636,0.8054656309788907
637,18.679692429650588
2,1, 5, 3, 0,13,40.00,50.00,Friday
7,30.9
140,28.303320848496278
141,28.49724839663925
142,28.724987164037836
143,25.30255077381916
144,26.15578657250172
145,26.16742597246486
146,27.00976443072513
632,0.4439092675272444
633,9.111224341660048
634,0.9047077876036698
635,22.283808556514644
636,0.826321615656518
637,19.403066741100845
2,1, 5, 3, 0,13,50.00,60.00,Friday
7,31.5
140,28.341012499569865
141,28.51986112353979
142,28.862057510343825
143,25.39257322390915
144,26.305022929138027
145,26.293220166532764
146,27.47981591987685
632,0.4759711479019331
633,9.731274142294112
634,0.9145169864927154
635,22.662033221861266
636,0.8418468089838969
637,19.95340340540247
2,1, 5, 3, 0,14, 0.00,10.00,Friday
7,31.8
140,28.40029685171537
141,28.560099912500744
142,28.73482670937405
143,25.511461777882418
144,26.48460375536525
145,26.44756378938133
146,28.360700678278623
632,0.46659056706633547
633,9.545280043488959
634,0.9323523458756591
635,23.359652802177636
636,0.8657369747112794
637,20.81988301594852
2,1, 5, 3, 0,14,10.00,20.00,Friday
7,32.0
140,28.50448400547958
141,28.645278986869618
142,29.109557323315735
143,25.621477625776817
144,26.672074061885753
145,26.613840053002073
146,27.489630897144744
632,0.5561913624105878
633,11.477118125248069
634,0.9713651838545532
635,24.92962951781398
636,0.9111327570692409
637,22.531104257201436
2,1, 5, 3, 0,14,20.00,30.00,Friday
7,31.8
140,28.571086986114989
141,28.694347904464409
142,29.03803303649911
143,25.72599138357728
144,26.811202663426376
145,26.736360690362444
146,28.412898219209255