Program Version,EnergyPlus, Version 9.5.0-de239b2e5f, YMD=2021.12.09 21:41
1,5,Environment Title[],Latitude[deg],Longitude[deg],Time Zone[],Elevation[m]
2,8,Day of Simulation[],Month[],Day of Month[],DST Indicator[1=yes 0=no],Hour[],StartMinute[],EndMinute[],DayType
3,5,Cumulative Day of Simulation[],Month[],Day of Month[],DST Indicator[1=yes 0=no],DayType  ! When Daily Report Variables Requested
4,2,Cumulative Days of Simulation[],Month[]  ! When Monthly Report Variables Requested
5,1,Cumulative Days of Simulation[] ! When Run Period Report Variables Requested
6,1,Calendar Year of Simulation[] ! When Annual Report Variables Requested
7,1,Environment,Site Outdoor Air Drybulb Temperature [C] !TimeStep
8,1,TZCUB5,Zone Mean Air Temperature [C] !TimeStep
9,1,TZCUB6,Zone Mean Air Temperature [C] !TimeStep
10,1,TZCUB7,Zone Mean Air Temperature [C] !TimeStep
11,1,TZLABORATORIOS,Zone Mean Air Temperature [C] !TimeStep
12,1,TZTECHOCUB5,Zone Mean Air Temperature [C] !TimeStep
13,1,TZTECHOCUB6,Zone Mean Air Temperature [C] !TimeStep
14,1,TZTECHOCUB7,Zone Mean Air Temperature [C] !TimeStep
End of Data Dictionary
1,RUN PERIOD 1,  18.51, -99.14,  -6.00,1219.00
2,1, 5, 3, 0, 1, 0.00,10.00,Wednesday
7,23.0
8,25.40055594537985
9,24.91004565927323
10,25.288446951685147
11,28.09341789583791
12,26.566499403195903
13,26.625159936168058
14,25.868327828551025
2,1, 5, 3, 0, 1,10.00,20.00,Wednesday
7,23.0
8,25.336874590682095
9,24.861358875697176
10,25.230989061707616
11,28.020942881860039
12,26.520546662606038
13,26.586290794452674
14,25.435705572977633
2,1, 5, 3, 0, 1,20.00,30.00,Wednesday
7,23.0
8,25.222221448158885
9,24.777530059982035
10,25.1421084033692
11,27.892213305330189
12,26.44348838158368
13,26.51176749785136
14,25.14070563824958
2,1, 5, 3, 0, 1,30.00,40.00,Wednesday
7,22.8
8,25.138024110301687
9,24.718943352433234
10,25.060314101508007
11,27.786939100839054
12,26.37442772764038
13,26.44729555669306
14,25.356031400963795
2,1, 5, 3, 0, 1,40.00,50.00,Wednesday
7,22.7
8,25.121482936204488
9,24.710872052820159
10,25.033314788133443
11,27.73259401946303
12,26.313836914259818
13,26.399324038278708
14,24.936354934232953
2,1, 5, 3, 0, 1,50.00,60.00,Wednesday
7,22.6
8,25.053170948360177
9,24.66819730431347
10,24.94955967523986
11,27.6125023343715
12,26.234056006177967
13,26.317645700064053
14,25.381932531385318
2,1, 5, 3, 0, 2, 0.00,10.00,Wednesday
7,22.5
8,24.994285387744669
9,24.630930179566144
10,24.910266149248778
11,27.514936378657106
12,26.16306225049137
13,26.252735097659014
14,24.89105830504793
2,1, 5, 3, 0, 2,10.00,20.00,Wednesday
7,22.4
8,24.941045138383197
9,24.59726039561248
10,24.878476447747905
11,27.419435714024727
12,26.089396951603669
13,26.189766838098973
14,25.03358276253502
2,1, 5, 3, 0, 2,20.00,30.00,Wednesday
7,22.3
8,24.88831443384084
9,24.564187177032559
10,24.844058857087125
11,27.31698887164174
12,26.010537543541216
13,26.122312089420949
14,24.89142844245094
2,1, 5, 3, 0, 2,30.00,40.00,Wednesday
7,22.4
8,24.84007830820675
9,24.536079633783879
10,24.80482013932207
11,27.21327646565004
12,25.935825652807805
13,26.058836449276116
14,24.820991226285618
2,1, 5, 3, 0, 2,40.00,50.00,Wednesday
7,22.5
8,24.7972413730494
9,24.51354914170009
10,24.753830889197233
11,27.111140921964734
12,25.86253745364361
13,25.997914173353818
14,25.079420138246176
2,1, 5, 3, 0, 2,50.00,60.00,Wednesday
7,22.3
8,24.74915107437366
9,24.485547423016987
10,24.699043448295343
11,27.00974343729527
12,25.785798336024258
13,25.933704812015266
14,24.86739217315177
2,1, 5, 3, 0, 3, 0.00,10.00,Wednesday
7,22.1
8,24.71467362184761
9,24.461857316081209
10,24.68392826662405
11,26.94195805091044
12,25.71663022170321
13,25.877897983979289
14,24.49061141099586
2,1, 5, 3, 0, 3,10.00,20.00,Wednesday
7,22.0
8,24.65694346791749
9,24.42348261791691
10,24.62190054725612
11,26.835126540792044
12,25.637992568707248
13,25.81055806922641
14,24.542458640613924
2,1, 5, 3, 0, 3,20.00,30.00,Wednesday
7,22.0
8,24.591077065637476
9,24.3820515315487
10,24.569581884682117
11,26.7106285531309
12,25.555999968715395
13,25.741371746008537
14,24.28394241405898
2,1, 5, 3, 0, 3,30.00,40.00,Wednesday
7,21.9
8,24.530891910575979
9,24.344682981992606
10,24.505915662059924
11,26.59863176010639
12,25.480326590771545
13,25.678700493803956
14,24.148491143699464
2,1, 5, 3, 0, 3,40.00,50.00,Wednesday
7,21.9
8,24.4996547472971
9,24.325457287275954
10,24.44604289134633
11,26.52590956737452
12,25.409081831806156
13,25.620700765760544
14,24.86115149237599
2,1, 5, 3, 0, 3,50.00,60.00,Wednesday
7,21.7
8,24.46196283835897
9,24.300215118929839
10,24.40169806581826
11,26.449288791406013
12,25.340439887477907
13,25.564510414558926
14,24.4306459111828
2,1, 5, 3, 0, 4, 0.00,10.00,Wednesday
7,21.7
8,24.399171060405597
9,24.259140478334314
10,24.299589483823988
11,26.329212782076654
12,25.257331302690557
13,25.49307993443387
14,24.72575717987066
2,1, 5, 3, 0, 4,10.00,20.00,Wednesday
7,21.8
8,24.365516929754635
9,24.239461643733326
10,24.255446430645067
11,26.24477143175619
12,25.185321803103144
13,25.435193623348959
14,25.122254162307077
2,1, 5, 3, 0, 4,20.00,30.00,Wednesday
7,21.5
8,24.284753120228844
9,24.186598530467799
10,24.152757297940508
11,26.10156503305276
12,25.10003948767089
13,25.360344467355107
14,25.001094507045008
2,1, 5, 3, 0, 4,30.00,40.00,Wednesday
7,21.4
8,24.21176418822738
9,24.13657684898703
10,24.06628730128593
11,25.987636230820266
12,25.022227182295276
13,25.2957503559779
14,24.857140033551518
2,1, 5, 3, 0, 4,40.00,50.00,Wednesday
7,21.1
8,24.174569494603678
9,24.108238214842275
10,24.02414275134484
11,25.923627929860979
12,24.945950265402894
13,25.232861410113949
14,24.331690698181395
2,1, 5, 3, 0, 4,50.00,60.00,Wednesday
7,21.2
8,24.140689268050559
9,24.085560894324787
10,23.982944590542624
11,25.84683043721585
12,24.881109105058127
13,25.179362951863049
14,24.758549985040014
2,1, 5, 3, 0, 5, 0.00,10.00,Wednesday
7,21.0
8,24.075822382902353
9,24.04052589217004
10,23.901651663832188
11,25.72658491620447
12,24.79587133693042
13,25.104523549676175
14,24.888499576241647
2,1, 5, 3, 0, 5,10.00,20.00,Wednesday
7,20.8
8,24.024407840493116
9,24.003657669924903
10,23.88804479712475
11,25.632982350994625
12,24.71586064021321
13,25.03540207517473
14,23.75193123722172
2,1, 5, 3, 0, 5,20.00,30.00,Wednesday
7,20.9
8,23.96543297448435
9,23.96350268224935
10,23.85767754807001
11,25.523151956355048
12,24.642681397791315
13,24.97165819899568
14,23.88599381119081
2,1, 5, 3, 0, 5,30.00,40.00,Wednesday
7,20.8
8,23.900403695849847
9,23.919468930190406
10,23.791085877144213
11,25.40273776473002
12,24.563368269875619
13,24.89968591556333
14,24.07870281650372
2,1, 5, 3, 0, 5,40.00,50.00,Wednesday
7,21.1
8,23.883594699832274
9,23.912034076494736
10,23.79706980344734
11,25.335175266837888
12,24.501773650282574
13,24.84745650050217
14,23.63140749609282
2,1, 5, 3, 0, 5,50.00,60.00,Wednesday
7,20.8
8,23.837515889346045
9,23.882170815769315
10,23.77932108793765
11,25.229031777180503
12,24.422723832935448
13,24.777082812761028
14,23.42561342339735
2,1, 5, 3, 0, 6, 0.00,10.00,Wednesday
7,20.8
8,23.773035351991827
9,23.83833398019408
10,23.729309110462144
11,25.1030383623279
12,24.340079549893596
13,24.703570794009044
14,23.657443148824464
2,1, 5, 3, 0, 6,10.00,20.00,Wednesday
7,20.1
8,23.686220185895569
9,23.770785939409487
10,23.59583585201387
11,24.99017530713253
12,24.25453721197484
13,24.625486057825968
14,23.54753776448808
2,1, 5, 3, 0, 6,20.00,30.00,Wednesday
7,20.1
8,23.60895323871275
9,23.70995235961632
10,23.46757762519952
11,24.89212939914766
12,24.18014884447241
13,24.559778931301574
14,23.778640731614464
2,1, 5, 3, 0, 6,30.00,40.00,Wednesday
7,19.5
8,23.560191002109194
9,23.669526450991819
10,23.406648317280788
11,24.824998563362635
12,24.10252803808283
13,24.490902821630283
14,23.150850852581976
2,1, 5, 3, 0, 6,40.00,50.00,Wednesday
7,19.6
8,23.51371923313274
9,23.6346875045383
10,23.43338695028378
11,24.739594254526759
12,24.03435879934714
13,24.431467759032758
14,22.24424508583553
2,1, 5, 3, 0, 6,50.00,60.00,Wednesday
7,19.5
8,23.47121958445804
9,23.603570438236909
10,23.375290027264208
11,24.656616133755486
12,23.95973078875499
13,24.366066641183495
14,22.791565547932639
2,1, 5, 3, 0, 7, 0.00,10.00,Wednesday
7,19.6
8,23.410064184725849
9,23.560401677423369
10,23.299671187763225
11,24.535526178933936
12,23.878258984708947
13,24.293597439707754
14,23.090169138634388
2,1, 5, 3, 0, 7,10.00,20.00,Wednesday
7,19.9
8,23.382455018266716
9,23.54421674432174
10,23.345023795722196
11,24.4488296739632
12,23.803283673646026
13,24.228328028701204
14,22.289713222140198
2,1, 5, 3, 0, 7,20.00,30.00,Wednesday
7,19.6
8,23.334498882247077
9,23.51305083495924
10,23.350523168405066
11,24.337564508200197
12,23.726182618426173
13,24.160235802078185
14,22.543936041712894
2,1, 5, 3, 0, 7,30.00,40.00,Wednesday
7,19.4
8,23.294853776977285
9,23.48424757881037
10,23.29448611264887
11,24.255614974001405
12,23.64774225273902
13,24.09049784938538
14,22.05174397947603
2,1, 5, 3, 0, 7,40.00,50.00,Wednesday
7,19.5
8,23.251914109992815
9,23.45790971069041
10,23.202394309089443
11,24.141022560693107
12,23.574898513786846
13,24.02666842249191
14,22.025816993576837
2,1, 5, 3, 0, 7,50.00,60.00,Wednesday
7,19.8
8,23.242520028951675
9,23.460200779261855
10,23.16871700354954
11,24.050672209328565
12,23.50466439972829
13,23.966834838505606
14,22.83126318006444
2,1, 5, 3, 0, 8, 0.00,10.00,Wednesday
7,20.1
8,23.243691840508654
9,23.46968757641279
10,23.123640217235648
11,23.974223111458558
12,23.446757421024555
13,23.917757215299049
14,23.13003739558227
2,1, 5, 3, 0, 8,10.00,20.00,Wednesday
7,20.1
8,23.24238167253085
9,23.48097885700364
10,23.087361219711565
11,23.857693613218165
12,23.376822233570644
13,23.85788910506205
14,22.94899151507775
2,1, 5, 3, 0, 8,20.00,30.00,Wednesday
7,20.7
8,23.262497238134615
9,23.50856359070231
10,23.14791989023111
11,23.783683236582414
12,23.323825576330728
13,23.815509828585307
14,22.51099706972941
2,1, 5, 3, 0, 8,30.00,40.00,Wednesday
7,21.2
8,23.30435903594585
9,23.565001122203378
10,23.246825929809654
11,23.65803460368869
12,23.27040104932509
13,23.77121280380225
14,22.9099711672364
2,1, 5, 3, 0, 8,40.00,50.00,Wednesday
7,22.0
8,23.354329183277224
9,23.62372425965156
10,23.32856195268439
11,23.58811170192191
12,23.225860673118477
13,23.734239138188973
14,23.19945662999259
2,1, 5, 3, 0, 8,50.00,60.00,Wednesday
7,22.9
8,23.41043546747815
9,23.68444499732321
10,23.394007733948233
11,23.537235051963589
12,23.188315532757025
13,23.703324593599857
14,23.434121431009513
2,1, 5, 3, 0, 9, 0.00,10.00,Wednesday
7,24.3
8,23.47759843700919
9,23.75558748797808
10,23.47643286449085
11,23.496328085006497
12,23.160881225613129
13,23.68252670443502
14,23.661575976939326
2,1, 5, 3, 0, 9,10.00,20.00,Wednesday
7,24.3
8,23.52569578309928
9,23.80651920249077
10,23.542681383102548
11,23.473807176845189
12,23.132970651129669
13,23.658986161310705
14,23.58099553184448
2,1, 5, 3, 0, 9,20.00,30.00,Wednesday
7,24.4
8,23.550210531934075
9,23.83330932502183
10,23.58407961706315
11,23.475901637221179
12,23.11468457208541
13,23.642869854580867
14,23.574320367000174
2,1, 5, 3, 0, 9,30.00,40.00,Wednesday
7,24.7
8,23.566849052102886
9,23.851895781006179
10,23.60678010787617
11,23.503585612823895
12,23.10919466790952
13,23.63862043690956
14,23.735784652701477
2,1, 5, 3, 0, 9,40.00,50.00,Wednesday
7,25.1
8,23.597196376908305
9,23.88275723756338
10,23.640180572610217
11,23.556154665449076
12,23.116681351317678
13,23.645638062292695
14,23.881463614456004
2,1, 5, 3, 0, 9,50.00,60.00,Wednesday
7,25.4
8,23.64443507968741
9,23.927882191706414
10,23.707513664932326
11,23.63349849618194
12,23.133328423903227
13,23.659336352587244
14,23.794740484371226
2,1, 5, 3, 0,10, 0.00,10.00,Wednesday
7,25.9
8,23.982484606525416
9,24.251024213104786
10,24.054774531389176
11,23.707220803426293
12,23.164460322294475
13,23.680347581229094
14,24.144768736633517
2,1, 5, 3, 0,10,10.00,20.00,Wednesday
7,26.2
8,24.41192083183803
9,24.66486975684748
10,24.496838133296948
11,23.864414394791134
12,23.205261167593727
13,23.70761480484795
14,24.253605180851275
2,1, 5, 3, 0,10,20.00,30.00,Wednesday
7,26.3
8,24.641222750415975
9,24.903227116098909
10,24.73535109761322
11,24.022830116993359
12,23.25381895136786
13,23.73657227041842
14,24.244594969002688
2,1, 5, 3, 0,10,30.00,40.00,Wednesday
7,26.4
8,24.706549631725268
9,24.977147124005155
10,24.814448316834686
11,24.181059490889579
12,23.316343207165123
13,23.78156836673743
14,24.17730898356359
2,1, 5, 3, 0,10,40.00,50.00,Wednesday
7,26.4
8,24.72010031165526
9,24.98626671279768
10,24.844771026369704
11,24.348799271875227
12,23.386446570068068
13,23.834934977487973
14,24.172601783890597
2,1, 5, 3, 0,10,50.00,60.00,Wednesday
7,25.9
8,24.727220674060889
9,24.983322003221283
10,24.841815022068749
11,24.475305826730137
12,23.44974289863545
13,23.88011775864372
14,23.906835740678184
2,1, 5, 3, 0,11, 0.00,10.00,Wednesday
7,26.2
8,24.765613833694986
9,25.00544399405447
10,24.885567994286189
11,24.67570158006722
12,23.539287791005767
13,23.949434637870778
14,24.08820249090449
2,1, 5, 3, 0,11,10.00,20.00,Wednesday
7,26.9
8,24.824926116878875
9,25.053101425573116
10,24.971331907571945
11,24.857067606672648
12,23.647890499116444
13,24.036713140299875
14,24.62697743976669
2,1, 5, 3, 0,11,20.00,30.00,Wednesday
7,27.2
8,24.87625768476713
9,25.092964547560479
10,25.013423228954449
11,25.025540263596093
12,23.737805324132546
13,24.10667108367582
14,24.929948258332084
2,1, 5, 3, 0,11,30.00,40.00,Wednesday
7,27.3
8,24.955497294449978
9,25.152262061120177
10,25.088913611183913
11,25.27363524927835
12,23.85499308645924
13,24.199108698123778
14,25.1350515514634
2,1, 5, 3, 0,11,40.00,50.00,Wednesday
7,27.4
8,25.00605606516539
9,25.189587807763404
10,25.180859945787213
11,25.455340044038928
12,23.973634956507718
13,24.2928090643412
14,24.77259376338775
2,1, 5, 3, 0,11,50.00,60.00,Wednesday
7,27.6
8,25.111928665813623
9,25.268398097104695
10,25.33304470041508
11,25.738916369127624
12,24.110006779988355
13,24.402382321667387
14,25.15751472110275
2,1, 5, 3, 0,12, 0.00,10.00,Wednesday
7,28.5
8,25.212863357946568
9,25.349826860737687
10,25.482915537705695
11,25.93643351088619
12,24.2573807513362
13,24.52359753956369
14,25.4634956146632
2,1, 5, 3, 0,12,10.00,20.00,Wednesday
7,28.0
8,25.27277898386485
9,25.393868995763787
10,25.538479054855768
11,26.13573106043129
12,24.390746571128454
13,24.629101861297785
14,25.551010189183534
2,1, 5, 3, 0,12,20.00,30.00,Wednesday
7,29.1
8,25.328702324234635
9,25.440892290659116
10,25.64906315853294
11,26.29837758794079
12,24.5594243928591
13,24.768255919811567
14,25.907107528603246
2,1, 5, 3, 0,12,30.00,40.00,Wednesday
7,29.2
8,25.40820637248781
9,25.50448092528824
10,25.771390771590555
11,26.520224614125746
12,24.743433673323904
13,24.91503586568789
14,26.077490675684034
2,1, 5, 3, 0,12,40.00,50.00,Wednesday
7,29.9
8,25.470155756010948
9,25.55470135058102
10,25.83104732657469
11,26.6950403471444
12,24.909974233890816
13,25.05132705600981
14,26.5951325993257
2,1, 5, 3, 0,12,50.00,60.00,Wednesday
7,30.5
8,25.59962397420731
9,25.660287985305915
10,25.979466870877226
11,26.954674721564616
12,25.110033332273507
13,25.215276394216148
14,26.883353114705267
2,1, 5, 3, 0,13, 0.00,10.00,Wednesday
7,31.4
8,25.673113037510676
9,25.724639552306156
10,26.11382935761487
11,27.09076421972717
12,25.28208726203647
13,25.360151072363828
14,27.57721913849694
2,1, 5, 3, 0,13,10.00,20.00,Wednesday
7,30.8
8,25.710366789433196
9,25.75157536876341
10,26.19802551889711
11,27.246966555167697
12,25.426784617117947
13,25.4765306457533
14,27.003800794296269
2,1, 5, 3, 0,13,20.00,30.00,Wednesday
7,30.6
8,25.790517261690846
9,25.809747762561196
10,26.292900994184579
11,27.498349932878637
12,25.62603861061583
13,25.64007478333434
14,27.431180739228773
2,1, 5, 3, 0,13,30.00,40.00,Wednesday
7,30.8
8,25.85626036595312
9,25.855553098919324
10,26.363276146749937
11,27.689470382383246
12,25.805033581045618
13,25.789840152868494
14,27.55392398430354
2,1, 5, 3, 0,13,40.00,50.00,Wednesday
7,30.9
8,25.89249203469516
9,25.88059216168683
10,26.44352804166286
11,27.806685053418407
12,25.967267332120679
13,25.930130365393706
14,26.933794972988346
2,1, 5, 3, 0,13,50.00,60.00,Wednesday
7,31.5
8,25.93030423426446
9,25.90321056298586
10,26.536622311635705
11,27.93460028130787
12,26.11108253448427
13,26.051585759998234
14,27.395479339664577
2,1, 5, 3, 0,14, 0.00,10.00,Wednesday
7,31.8
8,25.981959880404586
9,25.934925687619406
10,26.51672950173245
11,28.09502036578637
12,26.282413212742477
13,26.20016259863364
14,28.266482082279397
2,1, 5, 3, 0,14,10.00,20.00,Wednesday
7,32.0
8,26.09014593691581
9,26.022607135075679
10,26.752687644756919
11,28.235910607039754
12,26.46271046377401
13,26.362315092506319
14,27.39968298318789
2,1, 5, 3, 0,14,20.00,30.00,Wednesday
7,31.8
8,26.15269026281003
9,26.064150686895439
10,26.76278583993852
11,28.36659364051574
12,26.590596994859607
13,26.479759196901506
14,28.31383524805618
2,1, 5, 3, 0,14,30.00,40.00,Wednesday
7,31.6
8,26.22688716629017
9,26.115923715786488
10,26.868555632325763
11,28.48650562047377
12,26.71006725313639
13,26.607359944543725
14,27.470837636484867
2,1, 5, 3, 0,14,40.00,50.00,Wednesday
7,32.8
8,26.36401182237126
9,26.224212357621007
10,27.03533806024307
11,28.629895139146098
12,26.90633689127325
13,26.77718451736954
14,29.109103073848816
2,1, 5, 3, 0,14,50.00,60.00,Wednesday
7,33.5
8,26.53827291748928
9,26.36291194574001
10,27.174455059375398
11,28.78279297512102
12,27.087604253603705
13,26.935578461521357
14,29.287645926532599
2,1, 5, 3, 0,15, 0.00,10.00,Wednesday
7,31.8
8,26.52619780598508
9,26.322188064679226
10,27.134276106637424
11,28.900692527097126
12,27.168617772470865
13,27.00896844409967
14,28.35679486388072
2,1, 5, 3, 0,15,10.00,20.00,Wednesday
7,32.4
8,26.593401853730506
9,26.360645903634237
10,27.22157115280765
11,29.009177657457888
12,27.32474867075931
13,27.149808432687388
14,28.932028738211959
2,1, 5, 3, 0,15,20.00,30.00,Wednesday
7,32.8
8,26.75013976571507
9,26.46901855548608
10,27.37805296149699
11,29.171909287739937
12,27.513447412912183
13,27.31278806944142
14,28.96647800528224
2,1, 5, 3, 0,15,30.00,40.00,Wednesday
7,33.7
8,26.880446413538374
9,26.56557545893725
10,27.497742985419067
11,29.29145895013889
12,27.665696460702429
13,27.44783248685704
14,28.672099443682755
2,1, 5, 3, 0,15,40.00,50.00,Wednesday
7,32.9
8,26.948393409623
9,26.592278525775187
10,27.492720973638435
11,29.425197496702947
12,27.772228110564695
13,27.53921102267458
14,29.43248201605149
2,1, 5, 3, 0,15,50.00,60.00,Wednesday
7,33.3
8,27.08210648138371
9,26.667076992529237
10,27.56136603013495
11,29.59313354463177
12,27.93704936451899
13,27.680063389022043
14,29.14746370163879
2,1, 5, 3, 0,16, 0.00,10.00,Wednesday
7,33.9
8,27.249143768812364
9,26.789862032536239
10,27.810702854305139
11,29.721800756635909
12,28.11842358991237
13,27.839639944897909
14,30.73119185982216
2,1, 5, 3, 0,16,10.00,20.00,Wednesday
7,33.6
8,27.389833061168049
9,26.87847845409869
10,27.946170340751679
11,29.872540089310374
12,28.24773385760294
13,27.94986234295741
14,30.526085023720268
2,1, 5, 3, 0,16,20.00,30.00,Wednesday
7,32.9
8,27.438282184153857
9,26.87511738304388
10,27.805746344337949
11,29.997982604873557
12,28.36794974337575
13,28.039048876185136
14,29.092714782580484
2,1, 5, 3, 0,16,30.00,40.00,Wednesday
7,33.3
8,27.510018407300039
9,26.89945764514434
10,27.831685912792034
11,30.12423503657068
12,28.49296391854549
13,28.13704381787565
14,29.34056644499443
2,1, 5, 3, 0,16,40.00,50.00,Wednesday
7,33.5
8,27.589596649668736
9,26.918523837458087
10,27.999520790170324
11,30.303237865405899
12,28.625500840798684
13,28.2469481770086
14,30.56012171896134
2,1, 5, 3, 0,16,50.00,60.00,Wednesday
7,32.9
8,27.629000420904889
9,26.887888853393773
10,28.12438361808203
11,30.511054384270048
12,28.721690090778066
13,28.318063475880913
14,30.716335160684097
2,1, 5, 3, 0,17, 0.00,10.00,Wednesday
7,32.6
8,27.663815281767414
9,26.881710977439928
10,28.486070928335164
11,30.658645842737088
12,28.827114206229095
13,28.408976164702538
14,31.44826687108332
2,1, 5, 3, 0,17,10.00,20.00,Wednesday
7,30.9
8,27.641770171935315
9,26.80718565462915
10,28.40555566855304
11,30.811393011005863
12,28.856941226358147
13,28.418236919279296
14,30.398411671440245
2,1, 5, 3, 0,17,20.00,30.00,Wednesday
7,29.4
8,27.599043558771329
9,26.67122614310653
10,28.075421008988266
11,31.014292697085528
12,28.90653385001039
13,28.452828114809006
14,29.292742505434228
2,1, 5, 3, 0,17,30.00,40.00,Wednesday
7,29.0
8,27.596760088573565
9,26.630200421152979
10,27.894853077358463
11,31.09928633104756
12,28.93707288436459
13,28.4786831522949
14,28.991442402436279
2,1, 5, 3, 0,17,40.00,50.00,Wednesday
7,28.4
8,27.59703151601249
9,26.56433516992894
10,27.658172625223846
11,31.219077897666243
12,28.951654760690557
13,28.48906681654937
14,28.831459944077549
2,1, 5, 3, 0,17,50.00,60.00,Wednesday
7,29.2
8,27.63360792891385
9,26.539476156486857
10,27.58440222945356
11,31.33561383446947
12,28.971307631974029
13,28.50739383338032
14,28.941670703410595
2,1, 5, 3, 0,18, 0.00,10.00,Wednesday
7,28.0
8,27.650598384851706
9,26.53287757818194
10,27.564413475084046
11,31.364268901449834
12,28.948299094043919
13,28.48715853156651
14,28.34943123594215
2,1, 5, 3, 0,18,10.00,20.00,Wednesday
7,26.8
8,27.660872941809918
9,26.498821770515514
10,27.433618091739075
11,31.418084717879205
12,28.914620627916244
13,28.457051817079635
14,27.86824037942855
2,1, 5, 3, 0,18,20.00,30.00,Wednesday
7,26.8
8,27.662258961776439
9,26.475373667362839
10,27.348262958623
11,31.434612061590938
12,28.88701508271682
13,28.43552695051997
14,27.799876681989099
2,1, 5, 3, 0,18,30.00,40.00,Wednesday
7,27.5
8,27.67297731134589
9,26.489630787723436
10,27.4073158794712
11,31.413420024332028
12,28.8679889148521
13,28.42328536124281
14,28.14362495075655
2,1, 5, 3, 0,18,40.00,50.00,Wednesday
7,28.0
8,27.69544442839289
9,26.514018990593
10,27.480455308108007
11,31.3852185528539
12,28.838958083542584
13,28.402225582402278
14,28.361478109160978
2,1, 5, 3, 0,18,50.00,60.00,Wednesday
7,28.3
8,27.71339634161056
9,26.536414926970069
10,27.4869112551214
11,31.349638642532967
12,28.80026648554419
13,28.371876578879637
14,28.507851698151858
2,1, 5, 3, 0,19, 0.00,10.00,Wednesday
7,28.1
8,27.522902765420626
9,26.30212128139884
10,27.2563080426958
11,31.30371503492495
12,28.757196894818
13,28.337531290664154
14,28.417689997485004
2,1, 5, 3, 0,19,10.00,20.00,Wednesday
7,28.4
8,27.335719341941588
9,26.0135738615141
10,27.07559895670643
11,31.248956165865815
12,28.719961172712418
13,28.307903647089906
14,28.51616757993881
2,1, 5, 3, 0,19,20.00,30.00,Wednesday
7,28.3
8,27.2340310020247
9,25.84361106510045
10,26.983935521376944
11,31.188812346596305
12,28.678043170409539
13,28.2740366646441
14,28.515914814003133
2,1, 5, 3, 0,19,30.00,40.00,Wednesday
7,28.1
8,27.192484894118924
9,25.792964104868994
10,26.943496500680746
11,31.12565249303212
12,28.636858473290049
13,28.2424133474664
14,28.469568385901316
2,1, 5, 3, 0,19,40.00,50.00,Wednesday
7,27.9
8,27.15717864881466
9,25.77802446305823
10,26.879203858939666
11,31.06033245901231
12,28.59590997242768
13,28.209811793274946
14,28.438053701447396
2,1, 5, 3, 0,19,50.00,60.00,Wednesday
7,27.8
8,27.104948883272188
9,25.75483844784855
10,26.817642564083465
11,30.99291238103821
12,28.553767059486053
13,28.176554099025869
14,28.257434185682347
2,1, 5, 3, 0,20, 0.00,10.00,Wednesday
7,27.7
8,27.039246818756604
9,25.714973694693599
10,26.74459462958076
11,30.923617804904376
12,28.51174436287722
13,28.143202280331253
14,28.20354469715251
2,1, 5, 3, 0,20,10.00,20.00,Wednesday
7,27.4
8,26.973242221668249
9,25.67465812214464
10,26.668881692573224
11,30.85231305495772
12,28.46793178470989
13,28.108796014299008
14,28.095908342539429
2,1, 5, 3, 0,20,20.00,30.00,Wednesday
7,27.0
8,26.911022271720677
9,25.640784657089175
10,26.60459541160219
11,30.778632404165756
12,28.419390550271517
13,28.070481789651148
14,27.8035774692205
2,1, 5, 3, 0,20,30.00,40.00,Wednesday
7,26.9
8,26.856191733654243
9,25.614979231284069
10,26.564092573480708
11,30.702246945478497
12,28.372256855240658
13,28.033595197395458
14,27.68485026144247
2,1, 5, 3, 0,20,40.00,50.00,Wednesday
7,26.6
8,26.801261202397844
9,25.590240864774989
10,26.51802071872957
11,30.622910759402527
12,28.320387814436367
13,27.991971056747386
14,27.81187227573587
2,1, 5, 3, 0,20,50.00,60.00,Wednesday
7,26.3
8,26.768366559676353
9,25.576180755815814
10,26.47215658816076
11,30.564726721572514
12,28.27201010898755
13,27.951991468557944
14,27.15827212209333
2,1, 5, 3, 0,21, 0.00,10.00,Wednesday
7,26.0
8,26.70524802995549
9,25.546603854118176
10,26.389822229475759
11,30.47466696404798
12,28.207708253051849
13,27.898964113214306
14,26.99762154804989
2,1, 5, 3, 0,21,10.00,20.00,Wednesday
7,26.3
8,26.63598595575128
9,25.514121662654778
10,26.332717678984069
11,30.3688026040751
12,28.14652026802147
13,27.848930260064635
14,27.189600858971035
2,1, 5, 3, 0,21,20.00,30.00,Wednesday
7,26.1
8,26.60047422793958
9,25.495964362401993
10,26.313566765226889
11,30.30261336496926
12,28.09693231631588
13,27.80567654499833
14,27.549704329779347
2,1, 5, 3, 0,21,30.00,40.00,Wednesday
7,26.0
8,26.537301823125615
9,25.46316642728898
10,26.269584112122666
11,30.20173512342931
12,28.031004233133659
13,27.74968097660282
14,27.413574964353388
2,1, 5, 3, 0,21,40.00,50.00,Wednesday
7,26.2
8,26.47099887128405
9,25.435640771385545
10,26.22114011419741
11,30.082746373138236
12,27.966630029875494
13,27.696199460936265
14,27.318812273430294
2,1, 5, 3, 0,21,50.00,60.00,Wednesday
7,25.9
8,26.403429519980177
9,25.40728818164995
10,26.1666280383059
11,29.97353042796953
12,27.905216689107616
13,27.642925122410284
14,27.11698194516252
2,1, 5, 3, 0,22, 0.00,10.00,Wednesday
7,26.1
8,26.35171331394295
9,25.39064452843745
10,26.12667142319032
11,29.873847912304453
12,27.85385062192398
13,27.598176385901998
14,27.052344307366679
2,1, 5, 3, 0,22,10.00,20.00,Wednesday
7,25.9
8,26.30284795240406
9,25.375178884099414
10,26.083365176176704
11,29.77470136361071
12,27.789578937888594
13,27.54963442829939
14,26.878485399876664
2,1, 5, 3, 0,22,20.00,30.00,Wednesday
7,25.3
8,26.232899710855027
9,25.340136376458454
10,26.003378294212387
11,29.672970656388914
12,27.708776097645804
13,27.48660602201636
14,26.79977542672357
2,1, 5, 3, 0,22,30.00,40.00,Wednesday
7,25.3
8,26.16026465130487
9,25.30027222373532
10,25.935122587371283
11,29.57014007958331
12,27.636241994022329
13,27.430116698075105
14,27.071069159435987
2,1, 5, 3, 0,22,40.00,50.00,Wednesday
7,25.4
8,26.098288201146877
9,25.266651427173355
10,25.900310550926119
11,29.46747107686732
12,27.571172794705907
13,27.381849686617714
14,26.826573864478268
2,1, 5, 3, 0,22,50.00,60.00,Wednesday
7,25.2
8,26.04108295544518
9,25.236723098538083
10,25.8672384317006
11,29.36485125802044
12,27.49852188813739
13,27.32742852709372
14,26.57941175886134
2,1, 5, 3, 0,23, 0.00,10.00,Wednesday
7,25.1
8,26.013591412808439
9,25.226085015199354
10,25.82978599665417
11,29.29428533476351
12,27.434351204567336
13,27.281906584119154
14,27.024922982537846
2,1, 5, 3, 0,23,10.00,20.00,Wednesday
7,25.6
8,25.960321947630484
9,25.20929739009927
10,25.79162523813405
11,29.16212035814945
12,27.35767111660946
13,27.228245094324437
14,26.720970948776654
2,1, 5, 3, 0,23,20.00,30.00,Wednesday
7,25.5
8,25.90988698282062
9,25.19168293508213
10,25.764004555031563
11,29.048533391898535
12,27.2825723229256
13,27.179773195628625
14,26.56746207055276
2,1, 5, 3, 0,23,30.00,40.00,Wednesday
7,25.0
8,25.874682611806397
9,25.17070465530192
10,25.711993820756903
11,28.985916827615385
12,27.211318316280104
13,27.134142730937204
14,26.19464953862301
2,1, 5, 3, 0,23,40.00,50.00,Wednesday
7,25.0
8,25.816227403187928
9,25.137433853529143
10,25.654881948790274
11,28.881939035292516
12,27.12966721487625
13,27.07915603747185
14,26.19576443101089
2,1, 5, 3, 0,23,50.00,60.00,Wednesday
7,25.3
8,25.756609748300833
9,25.10944297220545
10,25.618441403188237
11,28.75735346417795
12,27.049025663621756
13,27.025286544425808
14,26.417463544396367
2,1, 5, 3, 0,24, 0.00,10.00,Wednesday
7,25.4
8,25.735655859425799
9,25.103464564683749
10,25.610694785986654
11,28.68687235131815
12,26.99462375927248
13,26.98751897558609
14,26.851376667095147
2,1, 5, 3, 0,24,10.00,20.00,Wednesday
7,25.4
8,25.69750885771328
9,25.090805321571709
10,25.58488949756025
11,28.58132151533173
12,26.925731459897155
13,26.934286795817369
14,26.695758703539455
2,1, 5, 3, 0,24,20.00,30.00,Wednesday
7,25.4
8,25.66492204666392
9,25.07831317099547
10,25.55562023414607
11,28.49341030579074
12,26.86173357359324
13,26.88622906336213
14,26.17173790159518
2,1, 5, 3, 0,24,30.00,40.00,Wednesday
7,25.5
8,25.613795896085536
9,25.055134501279278
10,25.518611046323369
11,28.37989722663115
12,26.7958472392392
13,26.83254153570298
14,26.343342183540356