Program Version,EnergyPlus, Version 9.5.0-de239b2e5f, YMD=2021.12.09 21:43
1,5,Environment Title[],Latitude[deg],Longitude[deg],Time Zone[],Elevation[m]
2,8,Day of Simulation[],Month[],Day of Month[],DST Indicator[1=yes 0=no],Hour[],StartMinute[],EndMinute[],DayType
3,5,Cumulative Day of Simulation[],Month[],Day of Month[],DST Indicator[1=yes 0=no],DayType  ! When Daily Report Variables Requested
4,2,Cumulative Days of Simulation[],Month[]  ! When Monthly Report Variables Requested
5,1,Cumulative Days of Simulation[] ! When Run Period Report Variables Requested
6,1,Calendar Year of Simulation[] ! When Annual Report Variables Requested
7,1,Environment,Site Outdoor Air Drybulb Temperature [C] !TimeStep
140,1,TZCUB5,Zone Mean Air Temperature [C] !TimeStep
141,1,TZCUB6,Zone Mean Air Temperature [C] !TimeStep
142,1,TZCUB7,Zone Mean Air Temperature [C] !TimeStep
143,1,TZLABORATORIOS,Zone Mean Air Temperature [C] !TimeStep
144,1,TZTECHOCUB5,Zone Mean Air Temperature [C] !TimeStep
145,1,TZTECHOCUB6,Zone Mean Air Temperature [C] !TimeStep
146,1,TZTECHOCUB7,Zone Mean Air Temperature [C] !TimeStep
End of Data Dictionary
1,RUN PERIOD 1,  18.51, -99.14,  -6.00,1219.00
2,1, 5, 3, 0, 1, 0.00,10.00,Friday
7,23.0
140,26.76843827046661
141,26.447936854293915
142,26.54891573581197
143,28.093372167298634
144,26.908558030488338
145,26.95490192979548
146,26.007200836971806
2,1, 5, 3, 0, 1,10.00,20.00,Friday
7,23.0
140,26.695944476854565
141,26.387884133381
142,26.492392357077877
143,28.020897894110968
144,26.86203610484482
145,26.9200199117533
146,25.627364947771388
2,1, 5, 3, 0, 1,20.00,30.00,Friday
7,23.0
140,26.560591804411837
141,26.27937711431666
142,26.40404441775285
143,27.892169551740634
144,26.785399796660586
145,26.853827028086543
146,25.32041571210418
2,1, 5, 3, 0, 1,30.00,40.00,Friday
7,22.8
140,26.460817089478206
141,26.202606990492336
142,26.315581810665085
143,27.786896315336635
144,26.716227070575738
145,26.79612783763204
146,25.540260228101937
2,1, 5, 3, 0, 1,40.00,50.00,Friday
7,22.7
140,26.447511370958354
141,26.196565789461489
142,26.28058021929693
143,27.732551754329003
144,26.65434155590999
145,26.74825397052926
146,25.113087197125517
2,1, 5, 3, 0, 1,50.00,60.00,Friday
7,22.6
140,26.37480977981027
141,26.146591848545677
142,26.180720420631198
143,27.61246111850576
144,26.574647622758009
145,26.67954084186284
146,25.562618521480599
2,1, 5, 3, 0, 2, 0.00,10.00,Friday
7,22.5
140,26.312081862426447
141,26.10330095188617
142,26.148892197837207
143,27.514895955359948
144,26.50312670376548
145,26.62142521443097
146,25.067376773207678
2,1, 5, 3, 0, 2,10.00,20.00,Friday
7,22.4
140,26.257607418153279
141,26.066424864168029
142,26.129417373486086
143,27.41939604619959
144,26.429204843195149
145,26.56116770664368
146,25.21305115342628
2,1, 5, 3, 0, 2,20.00,30.00,Friday
7,22.3
140,26.205892770090878
141,26.032159434455079
142,26.108322745784336
143,27.316949993397008
144,26.35008964197805
145,26.496029787411144
146,25.0665107929807
2,1, 5, 3, 0, 2,30.00,40.00,Friday
7,22.4
140,26.15935519144315
141,26.003395560371254
142,26.075678817794445
143,27.213238350141677
144,26.274884865239355
145,26.434399029379418
146,24.99767586202503
2,1, 5, 3, 0, 2,40.00,50.00,Friday
7,22.5
140,26.118074493260094
141,25.979905178694258
142,26.016463853937908
143,27.11110352356921
144,26.200759441425086
145,26.374164249832164
146,25.256761706097544
2,1, 5, 3, 0, 2,50.00,60.00,Friday
7,22.3
140,26.071886097398143
141,25.951137075541724
142,25.953169565174166
143,27.009706727216469
144,26.123006714821174
145,26.310597519584737
146,25.040059957463197
2,1, 5, 3, 0, 3, 0.00,10.00,Friday
7,22.1
140,26.040479448247646
141,25.928455893976595
142,25.945652507533759
143,26.941921820446426
144,26.052571628900855
145,26.254822296395525
146,24.662322588064748
2,1, 5, 3, 0, 3,10.00,20.00,Friday
7,22.0
140,25.984934884342044
141,25.88859863865883
142,25.882452218196339
143,26.83509101363288
144,25.972791399103934
145,26.188715103389617
146,24.715475958959236
2,1, 5, 3, 0, 3,20.00,30.00,Friday
7,22.0
140,25.92080555425485
141,25.844406703411559
142,25.83032537942484
143,26.710593802640618
144,25.889920757598039
145,26.121105958999608
146,24.450369730327198
2,1, 5, 3, 0, 3,30.00,40.00,Friday
7,21.9
140,25.862458623113964
141,25.80476011880501
142,25.759136993118977
143,26.598597678753469
144,25.81338778368818
145,26.05911416792189
146,24.31489744184025
2,1, 5, 3, 0, 3,40.00,50.00,Friday
7,21.9
140,25.835029042973475
141,25.784716879807609
142,25.68687893961087
143,26.525875952351034
144,25.740480535080374
145,25.999930698713233
146,25.020759177945807
2,1, 5, 3, 0, 3,50.00,60.00,Friday
7,21.7
140,25.80252175951935
141,25.759166940655136
142,25.639582909186005
143,26.449255654318763
144,25.670741180154825
145,25.94323930135735
146,24.597990641694389
2,1, 5, 3, 0, 4, 0.00,10.00,Friday
7,21.7
140,25.730387537969567
141,25.704259685453264
142,25.485705060230268
143,26.307638754527028
144,25.582139297623955
145,25.866714755352409
146,25.3025459973933
2,1, 5, 3, 0, 4,10.00,20.00,Friday
7,21.8
140,25.670966080396405
141,25.661383579670216
142,25.37198740697771
143,26.19049205880053
144,25.506457290767427
145,25.80432186545757
146,25.156870261386275
2,1, 5, 3, 0, 4,20.00,30.00,Friday
7,21.5
140,25.646130339393669
141,25.641455820891417
142,25.347226296904798
143,26.13356175369618
144,25.433504976008984
145,25.74312531903112
146,24.91788165415893
2,1, 5, 3, 0, 4,30.00,40.00,Friday
7,21.4
140,25.596016606550589
141,25.602480616968415
142,25.287603954710705
143,26.03305928602018
144,25.35445585983241
145,25.674620466634754
146,24.887657890427055
2,1, 5, 3, 0, 4,40.00,50.00,Friday
7,21.1
140,25.545502918691427
141,25.56288255153865
142,25.220438885127586
143,25.943598496600108
144,25.276013863528087
145,25.605434329692036
146,24.491257774599384
2,1, 5, 3, 0, 4,50.00,60.00,Friday
7,21.2
140,25.45859095070781
141,25.497315913373464
142,25.106904035253416
143,25.800359323006889
144,25.196377371275067
145,25.535130010292723
146,24.89951884973597
2,1, 5, 3, 0, 5, 0.00,10.00,Friday
7,21.0
140,25.385297400156639
141,25.442256949592737
142,25.007691124267369
143,25.686962236803056
144,25.116491422857256
145,25.46494972475535
146,24.85025626771547
2,1, 5, 3, 0, 5,10.00,20.00,Friday
7,20.8
140,25.35491288064189
141,25.419636059773017
142,25.036488779940986
143,25.619586991568008
144,25.04079926263061
145,25.399381024396996
146,23.864231505248598
2,1, 5, 3, 0, 5,20.00,30.00,Friday
7,20.9
140,25.313885837440954
141,25.390817566898396
142,25.045122244493876
143,25.523648135945117
144,24.966163562880419
145,25.333621382131896
146,24.096720009010295
2,1, 5, 3, 0, 5,30.00,40.00,Friday
7,20.8
140,25.254756945029056
141,25.34837595830415
142,24.990595638604068
143,25.40488828813637
144,24.882258222542139
145,25.258687624233624
146,24.20333503195666
2,1, 5, 3, 0, 5,40.00,50.00,Friday
7,21.1
140,25.237150338478803
141,25.340003749394826
142,25.006601450778154
143,25.334799826343308
144,24.817876186047678
145,25.204078559650268
146,23.797200630097714
2,1, 5, 3, 0, 5,50.00,60.00,Friday
7,20.8
140,25.190846788501447
141,25.30929437344856
142,25.012404729061623
143,25.227756977997815
144,24.736985454437329
145,25.13212390272044
146,23.58667241356624
2,1, 5, 3, 0, 6, 0.00,10.00,Friday
7,20.8
140,25.126622314575564
141,25.26418568118224
142,24.981999618515176
143,25.102295868451276
144,24.652358065314606
145,25.056971999158415
146,23.80960084367532
2,1, 5, 3, 0, 6,10.00,20.00,Friday
7,20.1
140,25.03540076700504
141,25.189765121857975
142,24.834491766916537
143,24.989982527318
144,24.564868812872168
145,24.977248250198814
146,23.68800336623791
2,1, 5, 3, 0, 6,20.00,30.00,Friday
7,20.1
140,24.952130231609258
141,25.120056472263376
142,24.675286306944654
143,24.892034043525429
144,24.48856658490608
145,24.909838983338344
146,23.904715888330878
2,1, 5, 3, 0, 6,30.00,40.00,Friday
7,19.5
140,24.900916913670217
141,25.07620163678139
142,24.60859498933064
143,24.824808082238066
144,24.408792127773709
145,24.838929059602035
146,23.298670558984126
2,1, 5, 3, 0, 6,40.00,50.00,Friday
7,19.6
140,24.85251594707134
141,25.038022932871223
142,24.656480394120899
143,24.739392946382155
144,24.33850637423368
145,24.777512768742996
146,22.388039493455105
2,1, 5, 3, 0, 6,50.00,60.00,Friday
7,19.5
140,24.8090551399364
141,25.005430412563695
142,24.601748431189479
143,24.656414268917567
144,24.26176646778993
145,24.710072058781308
146,22.938845937364755
2,1, 5, 3, 0, 7, 0.00,10.00,Friday
7,19.6
140,24.746131186400605
141,24.959498958292654
142,24.52617769274175
143,24.535321777740586
144,24.178730258949238
145,24.636186784327987
146,23.231885889878936
2,1, 5, 3, 0, 7,10.00,20.00,Friday
7,19.9
140,24.717726326745895
141,24.942637111455669
142,24.59507556804786
143,24.448627759920748
144,24.10144901439907
145,24.568572282756777
146,22.434548178156157
2,1, 5, 3, 0, 7,20.00,30.00,Friday
7,19.6
140,24.66946556460972
141,24.911544935215564
142,24.63005268079045
143,24.337368173426474
144,24.023012484802174
145,24.49922806898844
146,22.69207361921381
2,1, 5, 3, 0, 7,30.00,40.00,Friday
7,19.4
140,24.627754153896036
141,24.880913056232335
142,24.567474856443146
143,24.255423174357476
144,23.942589542974515
145,24.42754545206364
146,22.191162204498228
2,1, 5, 3, 0, 7,40.00,50.00,Friday
7,19.5
140,24.581710388882134
141,24.850203890360047
142,24.4570923630232
143,24.14083702735975
144,23.8682341689087
145,24.362236873069976
146,22.16651374233364
2,1, 5, 3, 0, 7,50.00,60.00,Friday
7,19.8
140,24.570516431478699
141,24.84996303289671
142,24.42053575903384
143,24.050491468184644
144,23.795921874159963
145,24.300285489168478
146,22.976073946365646
2,1, 5, 3, 0, 8, 0.00,10.00,Friday
7,20.1
140,24.569259442053988
141,24.85623663848706
142,24.357594791882997
143,23.974046291161185
144,23.736171330244404
145,24.249145685329219
146,23.518312496208666
2,1, 5, 3, 0, 8,10.00,20.00,Friday
7,20.1
140,24.560082312253983
141,24.863553014726187
142,24.290012373425975
143,23.83077778454155
144,23.661501498125277
145,24.184647276708259
146,23.29519893123946
2,1, 5, 3, 0, 8,20.00,30.00,Friday
7,20.7
140,24.584513184888146
141,24.89493509190782
142,24.379599913443707
143,23.773029411070934
144,23.61158984000579
145,24.14512443425924
146,22.691541037989084
2,1, 5, 3, 0, 8,30.00,40.00,Friday
7,21.2
140,24.614638079997389
141,24.93525135744768
142,24.47873419490287
143,23.70958005854338
144,23.562549919524384
145,24.104644447695337
146,23.130049782375438
2,1, 5, 3, 0, 8,40.00,50.00,Friday
7,22.0
140,24.67289324606756
141,25.01811723874424
142,24.616321041221423
143,23.594691943690969
144,23.508764781593926
145,24.058841686448475
146,23.353879769818556
2,1, 5, 3, 0, 8,50.00,60.00,Friday
7,22.9
140,24.73168504746715
141,25.102719993602894
142,24.70372536803616
143,23.5190806173377
144,23.46910418537209
145,24.025788644050207
146,23.59845095578468
2,1, 5, 3, 0, 9, 0.00,10.00,Friday
7,24.3
140,24.803626766792026
141,25.198642847268866
142,24.784537505861758
143,23.484334368240018
144,23.442199742971018
145,24.005637993778245
146,23.844845704386257
2,1, 5, 3, 0, 9,10.00,20.00,Friday
7,24.3
140,24.85353852632404
141,25.272427794526029
142,24.840608744257268
143,23.473076478219168
144,23.41324792298044
145,23.980952454398897
146,23.762899413948959
2,1, 5, 3, 0, 9,20.00,30.00,Friday
7,24.4
140,24.87849616438908
141,25.31764680871499
142,24.874472946538629
143,23.478575785280929
144,23.393456845969234
145,23.96326991898487
146,23.751296184677856
2,1, 5, 3, 0, 9,30.00,40.00,Friday
7,24.7
140,24.898587366700509
141,25.3485963399267
142,24.90639058906988
143,23.50450684996669
144,23.38722596537904
145,23.957753685551965
146,23.894988715671457
2,1, 5, 3, 0, 9,40.00,50.00,Friday
7,25.1
140,24.93465591384074
141,25.385675477322797
142,24.95082777995876
143,23.55537332782378
144,23.39409804280995
145,23.96310257558404
146,24.026860234399824
2,1, 5, 3, 0, 9,50.00,60.00,Friday
7,25.4
140,24.985661664577408
141,25.43093765564484
142,25.008578371448757
143,23.632528737612547
144,23.40986075407037
145,23.9752222966514
146,23.939049212947184
2,1, 5, 3, 0,10, 0.00,10.00,Friday
7,25.9
140,26.55450279798601
141,27.00147241556064
142,26.553889658282708
143,23.715551399612996
144,23.435307591004024
145,23.996160098152829
146,24.256834336564105
2,1, 5, 3, 0,10,10.00,20.00,Friday
7,26.2
140,26.932753231106866
141,27.35100452407958
142,26.920157775838427
143,23.8219196320363
144,23.46814909341816
145,24.020816147907799
146,24.38308498581179
2,1, 5, 3, 0,10,20.00,30.00,Friday
7,26.3
140,27.179864939319509
141,27.586093148118793
142,27.154857195817536
143,23.944393157868136
144,23.5125486597922
145,24.049736500544169
146,24.359272594463464
2,1, 5, 3, 0,10,30.00,40.00,Friday
7,26.4
140,27.652691516727228
141,28.037035571728283
142,27.595994314058215
143,24.167282982478576
144,23.575915566103125
145,24.092502489215624
146,24.31392610003363
2,1, 5, 3, 0,10,40.00,50.00,Friday
7,26.4
140,27.847654381445588
141,28.21600314623046
142,27.77068392054372
143,24.36102711683548
144,23.644806038340659
145,24.138375042781207
146,24.30223390910109
2,1, 5, 3, 0,10,50.00,60.00,Friday
7,25.9
140,27.84328440070881
141,28.199304419434836
142,27.75888766386924
143,24.536870653609957
144,23.717038226819527
145,24.1905355855927
146,24.16427628104042
2,1, 5, 3, 0,11, 0.00,10.00,Friday
7,26.2
140,27.842912503186935
141,28.18581117270485
142,27.766170927122269
143,24.720032753592919
144,23.806266908134487
145,24.259481689480397
146,24.137174012128175
2,1, 5, 3, 0,11,10.00,20.00,Friday
7,26.9
140,27.924541704817896
141,28.256530527569539
142,27.875686418203668
143,24.871701542034147
144,23.90898833350906
145,24.341326604807024
146,24.740372786267625
2,1, 5, 3, 0,11,20.00,30.00,Friday
7,27.2
140,27.988101166190753
141,28.308505785186929
142,27.96878170405964
143,25.035655770408974
144,24.000782790015849
145,24.412483122835057
146,25.01401690145678
2,1, 5, 3, 0,11,30.00,40.00,Friday
7,27.3
140,28.073494588632149
141,28.37491198333432
142,28.08527116678261
143,25.27906620492889
144,24.117898799536304
145,24.504394170876649
146,25.241178392833175
2,1, 5, 3, 0,11,40.00,50.00,Friday
7,27.4
140,28.132424577891468
141,28.419118972588217
142,28.151702913884
143,25.457775234716857
144,24.235928409560985
145,24.597106641821435
146,24.85814720314955
2,1, 5, 3, 0,11,50.00,60.00,Friday
7,27.6
140,28.238279455694057
141,28.499561261202275
142,28.28506849786437
143,25.738857651478875
144,24.369377890654179
145,24.703517994632429
146,25.24993048532521
2,1, 5, 3, 0,12, 0.00,10.00,Friday
7,28.5
140,28.33169200093611
141,28.575021325392237
142,28.424246873538608
143,25.936840535601918
144,24.51340946675883
145,24.821205497167303
146,25.57009397849957
2,1, 5, 3, 0,12,10.00,20.00,Friday
7,28.0
140,28.39523659298497
141,28.621051581101466
142,28.518014757217914
143,26.136391819202019
144,24.640705557995945
145,24.921579111649064
146,25.66928281433769
2,1, 5, 3, 0,12,20.00,30.00,Friday
7,29.1
140,28.4615741843673
141,28.674199014185818
142,28.618688060987929
143,26.298722231321706
144,24.79727490074837
145,25.050492474346116
146,26.019363873059136
2,1, 5, 3, 0,12,30.00,40.00,Friday
7,29.2
140,28.54991062154713
141,28.74177920578428
142,28.744972433324724
143,26.520406783401407
144,24.959321195960074
145,25.17555083612349
146,26.197222471751624
2,1, 5, 3, 0,12,40.00,50.00,Friday
7,29.9
140,28.61893874515219
141,28.79502501032164
142,28.841353216514137
143,26.695281705403155
144,25.123377744688854
145,25.305241130272607
146,26.715987312889895
2,1, 5, 3, 0,12,50.00,60.00,Friday
7,30.5
140,28.74197391945109
141,28.889813006825827
142,29.011724293058295
143,26.954894925515807
144,25.339517782435089
145,25.465574372748607
146,27.006179487829529
2,1, 5, 3, 0,13, 0.00,10.00,Friday
7,31.4
140,28.809531451047719
141,28.943289002030743
142,29.116023274235869
143,27.090968389449189
144,25.518316122474084
145,25.624298822315298
146,27.70119650064739
2,1, 5, 3, 0,13,10.00,20.00,Friday
7,30.8
140,28.86111026675166
141,28.978342457389716
142,29.18557309092131
143,27.247158191806905
144,25.670552169489313
145,25.745917538369619
146,27.131373425028494
2,1, 5, 3, 0,13,20.00,30.00,Friday
7,30.6
140,28.963460765704306
141,29.048861665454063
142,29.299112664126115
143,27.498522304129407
144,25.88031339541212
145,25.919542874299969
146,27.561069727409348
2,1, 5, 3, 0,13,30.00,40.00,Friday
7,30.8
140,29.04903766459441
141,29.107953700224159
142,29.396831959498113
143,27.689630900770774
144,26.06671876553979
145,26.076133626718744
146,27.689077930296379
2,1, 5, 3, 0,13,40.00,50.00,Friday
7,30.9
140,29.097416944160679
141,29.142192876890279
142,29.46204306498779
143,27.806840800782746
144,26.235318563860923
145,26.220810873188485
146,27.04507509762767
2,1, 5, 3, 0,13,50.00,60.00,Friday
7,31.5
140,29.13561937064437
141,29.161970388420209
142,29.531167730868626
143,27.93475021838358
144,26.385666511316768
145,26.347174068123804
146,27.51912606910104
2,1, 5, 3, 0,14, 0.00,10.00,Friday
7,31.8
140,29.203621761809847
141,29.20582738951769
142,29.571985075565534
143,28.095163047257686
144,26.567066651971055
145,26.502398615892024
146,28.40548728303145
2,1, 5, 3, 0,14,10.00,20.00,Friday
7,32.0
140,29.345961982114078
141,29.315427527057567
142,29.754877594970716
143,28.278102306734938
144,26.771049794855089
145,26.679799149142608
146,27.600841806564234
2,1, 5, 3, 0,14,20.00,30.00,Friday
7,31.8
140,29.41025692688667
141,29.36368819072296
142,29.7972341125529
143,28.379771554081914
144,26.900002097205709
145,26.79394284968051
146,28.457351158865899
2,1, 5, 3, 0,14,30.00,40.00,Friday
7,31.6
140,29.48831882468732
141,29.421488511002644
142,29.88056894394186
143,28.490889343843489
144,27.041899638276364
145,26.925255012834247
146,27.835866435279514
2,1, 5, 3, 0,14,40.00,50.00,Friday
7,32.8
140,29.62177093501117
141,29.52728815025157
142,30.029945985012885
143,28.630628931272907
144,27.2329997572647
145,27.099846230300444
146,29.17917424367079
2,1, 5, 3, 0,14,50.00,60.00,Friday
7,33.5
140,29.781894635343599
141,29.651806770110814
142,30.176976678601688
143,28.782930914997576
144,27.419912806768918
145,27.26291439274062
146,29.46362732510462
2,1, 5, 3, 0,15, 0.00,10.00,Friday
7,31.8
140,29.794329120492617
141,29.631773525502905
142,30.16085742553073
143,28.903056728802424
144,27.494345311282389
145,27.34425265883066
146,28.521498749351218
2,1, 5, 3, 0,15,10.00,20.00,Friday
7,32.4
140,29.865904810693459
141,29.677496508389618
142,30.232565349819127
143,29.0100820070422
144,27.652669911538369
145,27.48965944975946
146,29.08122574988763
2,1, 5, 3, 0,15,20.00,30.00,Friday
7,32.8
140,30.019336489096568
141,29.789005468412296
142,30.372638332198883
143,29.171798854597804
144,27.84659335662963
145,27.657021977794896
146,29.11806115807208
2,1, 5, 3, 0,15,30.00,40.00,Friday
7,33.7
140,30.143314619136118
141,29.88220615520313
142,30.490364334802359
143,29.291714371954407
144,28.000824956941054
145,27.797716778661177
146,28.792046930903525
2,1, 5, 3, 0,15,40.00,50.00,Friday
7,32.9
140,30.220838380177136
141,29.92202188365301
142,30.517711638152016
143,29.4253960691194
144,28.110366097168816
145,27.895060729466157
146,29.597344488860949
2,1, 5, 3, 0,15,50.00,60.00,Friday
7,33.3
140,30.326469423926633
141,29.992443232987463
142,30.599513166701095
143,29.551641594436256
144,28.267331239328685
145,28.034384778041838
146,29.243236482903435
2,1, 5, 3, 0,16, 0.00,10.00,Friday
7,33.9
140,30.48519757930439
141,30.107874634145259
142,30.78164168379481
143,29.70239891146829
144,28.451696526361759
145,28.1968294614153
146,30.93525668459846
2,1, 5, 3, 0,16,10.00,20.00,Friday
7,33.6
140,30.621751954976348
141,30.188746748450588
142,30.88921425424272
143,29.874532724696566
144,28.59767703269491
145,28.321525609710489
146,30.748402659299829
2,1, 5, 3, 0,16,20.00,30.00,Friday
7,32.9
140,30.676458416429527
141,30.20198184144274
142,30.836879393901297
143,29.997448748475596
144,28.720211448230779
145,28.426342298810569
146,29.34798590482732
2,1, 5, 3, 0,16,30.00,40.00,Friday
7,33.3
140,30.74179678574663
141,30.233012012815104
142,30.875640640048844
143,30.122968176588807
144,28.847127134803676
145,28.539180967834079
146,29.453729936108329
2,1, 5, 3, 0,16,40.00,50.00,Friday
7,33.5
140,30.811448557576264
141,30.25454123250476
142,30.97725592357017
143,30.303068062627909
144,28.984401991727056
145,28.654385607457994
146,30.749426650244616
2,1, 5, 3, 0,16,50.00,60.00,Friday
7,32.9
140,30.84563147453149
141,30.229813769313734
142,31.024730634269056
143,30.51145658009676
144,29.08479769911854
145,28.73332121038338
146,30.911078167405728
2,1, 5, 3, 0,17, 0.00,10.00,Friday
7,32.6
140,30.863073479041746
141,30.217969410137976
142,31.13265458279507
143,30.658861116002386
144,29.191690623412094
145,28.813637561016355
146,31.54507152986207
2,1, 5, 3, 0,17,10.00,20.00,Friday
7,30.9
140,30.845501910544177
141,30.17392047354981
142,30.90396756494024
143,30.811607473009397
144,29.225563737333709
145,28.821401495577566
146,30.478828766743097
2,1, 5, 3, 0,17,20.00,30.00,Friday
7,29.4
140,30.801047279516426
141,30.09129581004989
142,30.55869820884752
143,31.014479670152029
144,29.280036899996206
145,28.86006483823628
146,29.371793460264468
2,1, 5, 3, 0,17,30.00,40.00,Friday
7,29.0
140,30.79471427242894
141,30.065626522071818
142,30.548438053601609
143,31.099468503635167
144,29.313433311929196
145,28.886055819651266
146,29.072185828348798
2,1, 5, 3, 0,17,40.00,50.00,Friday
7,28.4
140,30.783304919770197
141,30.023876653727986
142,30.563788197173243
143,31.219253888393735
144,29.330197812339159
145,28.896951751258329
146,29.08055955526511
2,1, 5, 3, 0,17,50.00,60.00,Friday
7,29.2
140,30.82653683366065
141,30.034801813019916
142,30.595998728823156
143,31.335781283293036
144,29.352412039581439
145,28.91789096825684
146,29.259526184349057
2,1, 5, 3, 0,18, 0.00,10.00,Friday
7,28.0
140,30.83866576840181
141,30.035603384568359
142,30.505251927906234
143,31.370439666031609
144,29.32784922945836
145,28.897835405610026
146,28.457172784075799
2,1, 5, 3, 0,18,10.00,20.00,Friday
7,26.8
140,30.8298599026381
141,30.017191418396537
142,30.454508568255166
143,31.391959164591318
144,29.297861827914738
145,28.87114035405927
146,28.03520869347706
2,1, 5, 3, 0,18,20.00,30.00,Friday
7,26.8
140,30.836593959145309
141,30.01128049334271
142,30.405287686285207
143,31.414562920524817
144,29.270071771897304
145,28.849521926934714
146,27.959412840644548
2,1, 5, 3, 0,18,30.00,40.00,Friday
7,27.5
140,30.86875865379387
141,30.038980901009965
142,30.45894638098285
143,31.408596768853714
144,29.25219367020243
145,28.838676425358643
146,28.2900193201046
2,1, 5, 3, 0,18,40.00,50.00,Friday
7,28.0
140,30.915949699449415
141,30.082595864876727
142,30.531729539863684
143,31.386679724789766
144,29.225741399617385
145,28.82036125235287
146,28.502109912404799
2,1, 5, 3, 0,18,50.00,60.00,Friday
7,28.3
140,30.955237195630045
141,30.120741218175174
142,30.67619668915781
143,31.35060619828006
144,29.189657095844024
145,28.793192069111276
146,28.654763619289747
2,1, 5, 3, 0,19, 0.00,10.00,Friday
7,28.1
140,29.76844737660906
141,28.94170189706655
142,29.513416846053415
143,31.311427171877577
144,29.151924763205025
145,28.76297038710268
146,28.556143047465207
2,1, 5, 3, 0,19,10.00,20.00,Friday
7,28.4
140,28.847757428467909
141,27.967863164174088
142,28.56330308614397
143,31.251134469407988
144,29.116494804843506
145,28.736211005724838
146,28.720038513751289
2,1, 5, 3, 0,19,20.00,30.00,Friday
7,28.3
140,28.920053059125388
141,28.02873044213141
142,28.61582457660086
143,31.20829836690906
144,29.08009378989282
145,28.70675129824174
146,28.704201293182785
2,1, 5, 3, 0,19,30.00,40.00,Friday
7,28.1
140,28.905398632033199
141,28.00941778019384
142,28.58084257995379
143,31.140753499977849
144,29.036274864866923
145,28.672714560262969
146,28.7323942217709
2,1, 5, 3, 0,19,40.00,50.00,Friday
7,27.9
140,28.716557773685577
141,27.812095533256256
142,28.388900622301173
143,31.06239769164419
144,28.99047555397176
145,28.63636379495239
146,28.67087312125278
2,1, 5, 3, 0,19,50.00,60.00,Friday
7,27.8
140,28.532849365677529
141,27.615355063164367
142,28.20326947458985
143,30.98998967801764
144,28.94636274921676
145,28.60157879903367
146,28.46595111732572
2,1, 5, 3, 0,20, 0.00,10.00,Friday
7,27.7
140,28.428874627098606
141,27.4969009305657
142,28.102620054860947
143,30.92218869916401
144,28.90421469197444
145,28.568142427261994
146,28.38773734967815
2,1, 5, 3, 0,20,10.00,20.00,Friday
7,27.4
140,28.377554349495836
141,27.438913750138327
142,28.05926970892941
143,30.85262862693951
144,28.859209784879938
145,28.5325992722423
146,28.266080048624059
2,1, 5, 3, 0,20,20.00,30.00,Friday
7,27.0
140,28.351003735217668
141,27.426569715456027
142,28.03341593338408
143,30.8002199269348
144,28.816816590020843
145,28.49843965484895
146,27.94523507904681
2,1, 5, 3, 0,20,30.00,40.00,Friday
7,26.9
140,28.298504753175427
141,27.392712289597158
142,27.95416114608704
143,30.719668310180329
144,28.76556449818777
145,28.45819291805406
146,27.85021338574878
2,1, 5, 3, 0,20,40.00,50.00,Friday
7,26.6
140,28.226241662335935
141,27.335846458277968
142,27.8501210351075
143,30.625578750105285
144,28.705508047019646
145,28.409800926242597
146,28.038027558678658
2,1, 5, 3, 0,20,50.00,60.00,Friday
7,26.3
140,28.181732877350304
141,27.303163958694694
142,27.75578974908321
143,30.56190837240305
144,28.653756865319055
145,28.36631344021561
146,27.24945154580966
2,1, 5, 3, 0,21, 0.00,10.00,Friday
7,26.0
140,28.112594598024278
141,27.2477411199326
142,27.63848439800513
143,30.474521710834567
144,28.588590006811676
145,28.31216633566634
146,27.18547211912518
2,1, 5, 3, 0,21,10.00,20.00,Friday
7,26.3
140,28.04353082667932
141,27.191771297058055
142,27.5936263299735
143,30.369948591783105
144,28.527730726558475
145,28.26102597441013
146,27.38434223099495
2,1, 5, 3, 0,21,20.00,30.00,Friday
7,26.1
140,28.009512639802908
141,27.169083824540516
142,27.611593697375385
143,30.302717601822356
144,28.47786512439826
145,28.217933625442027
146,27.73166964163834
2,1, 5, 3, 0,21,30.00,40.00,Friday
7,26.0
140,27.947900185732924
141,27.12632805795913
142,27.609703678019483
143,30.20133784510228
144,28.404286894238856
145,28.16002446569792
146,27.57066787286423
2,1, 5, 3, 0,21,40.00,50.00,Friday
7,26.2
140,27.881161916142856
141,27.085117387274364
142,27.577640575352146
143,30.082514847903459
144,28.325776373933
145,28.10387959905022
146,27.50466458604507
2,1, 5, 3, 0,21,50.00,60.00,Friday
7,25.9
140,27.80953232553544
141,27.042114360381868
142,27.525644089621236
143,29.973512890609574
144,28.249849467592108
145,28.04875332059933
146,27.32637655997634
2,1, 5, 3, 0,22, 0.00,10.00,Friday
7,26.1
140,27.753175442636754
141,27.015421087576617
142,27.44695357899436
143,29.873861360574244
144,28.18201383748306
145,28.00307941983874
146,27.29065939350119
2,1, 5, 3, 0,22,10.00,20.00,Friday
7,25.9
140,27.700287275126909
141,26.99223960890776
142,27.35542206123228
143,29.774667138329908
144,28.108282047601248
145,27.954667320726214
146,27.107370086802825
2,1, 5, 3, 0,22,20.00,30.00,Friday
7,25.3
140,27.625202756425737
141,26.945639201418339
142,27.25183486396126
143,29.672913141897586
144,28.019509749132248
145,27.8905418442257
146,27.082769283000329
2,1, 5, 3, 0,22,30.00,40.00,Friday
7,25.3
140,27.548781370765398
141,26.894242623204055
142,27.194886227570906
143,29.570089675765748
144,27.935129574587174
145,27.83114698206222
146,27.254334663279054
2,1, 5, 3, 0,22,40.00,50.00,Friday
7,25.4
140,27.48677553572433
141,26.8538510122804
142,27.20406699145806
143,29.467431035072868
144,27.867147943112099
145,27.780234159882853
146,27.014161238410418
2,1, 5, 3, 0,22,50.00,60.00,Friday
7,25.2
140,27.429382051151156
141,26.818815774087758
142,27.19812241226534
143,29.36481387121247
144,27.796886575633385
145,27.721448909022614
146,26.78753590768686
2,1, 5, 3, 0,23, 0.00,10.00,Friday
7,25.1
140,27.398738596046255
141,26.80436716076185
142,27.13122602338006
143,29.294246241696109
144,27.73355708430383
145,27.66906301380645
146,27.354255754085444
2,1, 5, 3, 0,23,10.00,20.00,Friday
7,25.6
140,27.34243897169476
141,26.78228325379115
142,27.081616229871714
143,29.162081950321587
144,27.662606072239439
145,27.60548790098005
146,26.90282989813256
2,1, 5, 3, 0,23,20.00,30.00,Friday
7,25.5
140,27.290739546379247
141,26.761656546593714
142,27.070997009492534
143,29.048496252095786
144,27.593506881778
145,27.54661431675125
146,26.75195618173845
2,1, 5, 3, 0,23,30.00,40.00,Friday
7,25.0
140,27.253346521447136
141,26.736519991031398
142,26.98621538874452
143,28.98588031989034
144,27.525660939686554
145,27.489616241208205
146,26.384318649428225
2,1, 5, 3, 0,23,40.00,50.00,Friday
7,25.0
140,27.19242265271788
141,26.69738421200607
142,26.913128039993727
143,28.88190339887127
144,27.455487757803828
145,27.423003166081455
146,26.387763274079636
2,1, 5, 3, 0,23,50.00,60.00,Friday
7,25.3
140,27.132182087103947
141,26.665663578249459
142,26.88503140546588