Program Version,EnergyPlus, Version 9.5.0-de239b2e5f, YMD=2021.12.10 00:54
1,5,Environment Title[],Latitude[deg],Longitude[deg],Time Zone[],Elevation[m]
2,8,Day of Simulation[],Month[],Day of Month[],DST Indicator[1=yes 0=no],Hour[],StartMinute[],EndMinute[],DayType
3,5,Cumulative Day of Simulation[],Month[],Day of Month[],DST Indicator[1=yes 0=no],DayType  ! When Daily Report Variables Requested
4,2,Cumulative Days of Simulation[],Month[]  ! When Monthly Report Variables Requested
5,1,Cumulative Days of Simulation[] ! When Run Period Report Variables Requested
6,1,Calendar Year of Simulation[] ! When Annual Report Variables Requested
7,1,Environment,Site Outdoor Air Drybulb Temperature [C] !TimeStep
140,1,TZCUB5,Zone Mean Air Temperature [C] !TimeStep
141,1,TZCUB6,Zone Mean Air Temperature [C] !TimeStep
142,1,TZCUB7,Zone Mean Air Temperature [C] !TimeStep
143,1,TZLABORATORIOS,Zone Mean Air Temperature [C] !TimeStep
144,1,TZTECHOCUB5,Zone Mean Air Temperature [C] !TimeStep
145,1,TZTECHOCUB6,Zone Mean Air Temperature [C] !TimeStep
146,1,TZTECHOCUB7,Zone Mean Air Temperature [C] !TimeStep
End of Data Dictionary
1,RUN PERIOD 1,  18.51, -99.14,  -6.00,1219.00
2,1, 5, 3, 0, 1, 0.00,10.00,Friday
7,23.0
140,26.79233891369292
141,26.457017042299254
142,26.22723576624901
143,28.09336159149265
144,26.902986499183016
145,26.951374213884479
146,26.000626901881163
2,1, 5, 3, 0, 1,10.00,20.00,Friday
7,23.0
140,26.722864020785374
141,26.39900881555384
142,26.195363898425524
143,28.02088748651886
144,26.85695641745165
145,26.91684111054763
146,25.618193444241077
2,1, 5, 3, 0, 1,20.00,30.00,Friday
7,23.0
140,26.594263200788654
141,26.295178631815334
142,26.19332631161015
143,27.89215942375136
144,26.780958542090489
145,26.85115418787487
146,25.31204013833299
2,1, 5, 3, 0, 1,30.00,40.00,Friday
7,22.8
140,26.500766653851195
141,26.22288314820993
142,26.09457340813809
143,27.78688640718681
144,26.71236100728554
145,26.793889011460825
146,25.531913991416955
2,1, 5, 3, 0, 1,40.00,50.00,Friday
7,22.7
140,26.488042011540256
141,26.217292690561139
142,26.00626513759729
143,27.732541965769629
144,26.65098984775735
145,26.746353404907184
146,25.105198233423324
2,1, 5, 3, 0, 1,50.00,60.00,Friday
7,22.6
140,26.419179038437485
141,26.16998591322062
142,25.83316118889072
143,27.612451569630374
144,26.571955971405069
145,26.678167208146975
146,25.554739406087433
2,1, 5, 3, 0, 2, 0.00,10.00,Friday
7,22.5
140,26.359675388176698
141,26.128823455814069
142,25.862814665338385
143,27.514886587789069
144,26.501025579829457
145,26.620480506632469
146,25.05987310510133
2,1, 5, 3, 0, 2,10.00,20.00,Friday
7,22.4
140,26.308033682827156
141,26.093777412787469
142,25.901573805148759
143,27.41938685194173
144,26.42772253586991
145,26.560673540475727
146,25.205652354174075
2,1, 5, 3, 0, 2,20.00,30.00,Friday
7,22.3
140,26.258869561119178
141,26.061140040277956
142,25.92281313891362
143,27.316940980588407
144,26.34926843022439
145,26.496029866305994
146,25.059449829251848
2,1, 5, 3, 0, 2,30.00,40.00,Friday
7,22.4
140,26.21457532575092
141,26.033759094723764
142,25.900548502701505
143,27.21322951274916
144,26.27471150465229
145,26.43488306255846
146,24.9907194258411
2,1, 5, 3, 0, 2,40.00,50.00,Friday
7,22.5
140,26.175196272508616
141,26.01134512762503
142,25.79127104648196
143,27.11109485123853
144,26.20120214382541
145,26.375128557211469
146,25.249999964360986
2,1, 5, 3, 0, 2,50.00,60.00,Friday
7,22.3
140,26.130826630171055
141,25.983585921989869
142,25.690311551657687
143,27.009698213475234
144,26.124083554645105
145,26.31207045538243
146,25.033675173232138
2,1, 5, 3, 0, 3, 0.00,10.00,Friday
7,22.1
140,26.100160671820313
141,25.961292360431707
142,25.741484959157874
143,26.941913417569837
144,26.05420486192199
145,26.25685609576786
146,24.656141072467343
2,1, 5, 3, 0, 3,10.00,20.00,Friday
7,22.0
140,26.046458789910895
141,25.922350956195037
142,25.64757558776585
143,26.835082773084989
144,25.975085852770179
145,26.19141295042839
146,24.70949778572288
2,1, 5, 3, 0, 3,20.00,30.00,Friday
7,22.0
140,25.985496654889859
141,25.87965477933874
142,25.622916862936078
143,26.710585741215465
144,25.892931388403757
145,26.124073093190427
146,24.444817105122426
2,1, 5, 3, 0, 3,30.00,40.00,Friday
7,21.9
140,25.930445878945084
141,25.841752003832395
142,25.519960538007024
143,26.598589771698845
144,25.817056648313675
145,26.062443508234599
146,24.309551371276585
2,1, 5, 3, 0, 3,40.00,50.00,Friday
7,21.9
140,25.903497743031289
141,25.822227478038735
142,25.344342678421535
143,26.52586815326927
144,25.74475217772203
145,26.003688450285077
146,25.015816570221486
2,1, 5, 3, 0, 3,50.00,60.00,Friday
7,21.7
140,25.872183184163725
141,25.79708788852271
142,25.274162527586165
143,26.44924796585729
144,25.675592610560775
145,25.947357973426397
146,24.59308431791294
2,1, 5, 3, 0, 4, 0.00,10.00,Friday
7,21.7
140,25.80226780291879
141,25.743802165129297
142,24.977666934971127
143,26.307631253383904
144,25.587783997107459
145,25.871420645726127
146,25.301485630570978
2,1, 5, 3, 0, 4,10.00,20.00,Friday
7,21.8
140,25.74507603829958
141,25.702807009159206
142,24.805725053878559
143,26.19048470609448
144,25.51281144079109
145,25.809482348177544
146,25.15454478747051
2,1, 5, 3, 0, 4,20.00,30.00,Friday
7,21.5
140,25.719836905696807
141,25.683166359161626
142,24.785641686649144
143,26.133554484265419
144,25.44060782627296
145,25.74862685418519
146,24.913490827309944
2,1, 5, 3, 0, 4,30.00,40.00,Friday
7,21.4
140,25.670082339643899
141,25.64510284057929
142,24.709838523406839
143,26.033052152407956
144,25.36255567955977
145,25.680603287081845
146,24.88431527490544
2,1, 5, 3, 0, 4,40.00,50.00,Friday
7,21.1
140,25.62044895406852
141,25.60640923150909
142,24.609716019451534
143,25.94359148231733
144,25.284356886299187
145,25.611846621034425
146,24.48706714840185
2,1, 5, 3, 0, 4,50.00,60.00,Friday
7,21.2
140,25.536520546075665
141,25.543417203906697
142,24.464045014629848
143,25.800352483687236
144,25.205455541524285
145,25.54207883573293
146,24.89812200235921
2,1, 5, 3, 0, 5, 0.00,10.00,Friday
7,21.0
140,25.46657914358429
141,25.4909631171367
142,24.334562939311004
143,25.686955533215494
144,25.126206375132257
145,25.472341812977164
146,24.849010215207529
2,1, 5, 3, 0, 5,10.00,20.00,Friday
7,20.8
140,25.436909453459486
141,25.469003831500069
142,24.462510651926065
143,25.619580381022315
144,25.051068976160928
145,25.407174067959106
146,23.869653693015779
2,1, 5, 3, 0, 5,20.00,30.00,Friday
7,20.9
140,25.396901092182046
141,25.44109192919792
142,24.51813706396565
143,25.52364164887996
144,24.97703328698852
145,25.341850534077947
146,24.08911158689592
2,1, 5, 3, 0, 5,30.00,40.00,Friday
7,20.8
140,25.33937275145774
141,25.39994974118724
142,24.426495811460318
143,25.404881944919855
144,24.89381004851862
145,25.267411241545444
146,24.198869281696028
2,1, 5, 3, 0, 5,40.00,50.00,Friday
7,21.1
140,25.322052243385629
141,25.39184787251285
142,24.504587575524459
143,25.334793571852303
144,24.829937105948475
145,25.21315760209419
146,23.792957933545467
2,1, 5, 3, 0, 5,50.00,60.00,Friday
7,20.8
140,25.276502403606508
141,25.361688618942766
142,24.571689416757655
143,25.22775085134792
144,24.74969246700647
145,25.141670853176547
146,23.582030499043254
2,1, 5, 3, 0, 6, 0.00,10.00,Friday
7,20.8
140,25.21384146756997
141,25.31765643451498
142,24.553796317130187
143,25.102289885140637
144,24.66576775642419
145,25.06703075113525
146,23.80511325500917
2,1, 5, 3, 0, 6,10.00,20.00,Friday
7,20.1
140,25.155050116250025
141,25.266823172677144
142,24.25867383450732
143,25.035355800006668
144,24.586554304409867
145,24.995135315721908
146,23.679460664269138
2,1, 5, 3, 0, 6,20.00,30.00,Friday
7,20.1
140,25.07751753121318
141,25.202130294237059
142,23.983775552911795
143,24.931208745527479
144,24.51009622420315
145,24.927378001566145
146,23.922566631249454
2,1, 5, 3, 0, 6,30.00,40.00,Friday
7,19.5
140,25.012867753316404
141,25.148808416154343
142,23.887801131463506
143,24.84092704963936
144,24.423156781020368
145,24.84960540350808
146,23.294210527159487
2,1, 5, 3, 0, 6,40.00,50.00,Friday
7,19.6
140,24.96008064930402
141,25.107602643867698
142,24.135674132568814
143,24.74904883163004
144,24.35498324300464
145,24.789962545507927
146,22.385475281401129
2,1, 5, 3, 0, 6,50.00,60.00,Friday
7,19.5
140,24.914831854592756
141,25.073826484056434
142,24.018393245583274
143,24.663252416165919
144,24.278105298086133
145,24.72227520467839
146,22.935269889011495
2,1, 5, 3, 0, 7, 0.00,10.00,Friday
7,19.6
140,24.849944474589099
141,25.026531397599457
142,23.89361778653258
143,24.53839342894495
144,24.19558224730907
145,24.648700686121637
146,23.227561520972168
2,1, 5, 3, 0, 7,10.00,20.00,Friday
7,19.9
140,24.82050159810076
141,25.00895746708449
142,24.176002867437533
143,24.450448573472273
144,24.119032578682896
145,24.581641157450546
146,22.430250604096054
2,1, 5, 3, 0, 7,20.00,30.00,Friday
7,19.6
140,24.77219580782114
141,24.977704580690366
142,24.366489997116167
143,24.33843379658035
144,24.04122709785364
145,24.51276158630151
146,22.687508256534185
2,1, 5, 3, 0, 7,30.00,40.00,Friday
7,19.4
140,24.7305338922084
141,24.947082877194334
142,24.249470065276428
143,24.256216620823058
144,23.961358591243106
145,24.441471830560738
146,22.186776970064125
2,1, 5, 3, 0, 7,40.00,50.00,Friday
7,19.5
140,24.68496890396756
141,24.91657449006591
142,24.004595741406246
143,24.141376407505758
144,23.88763697549368
145,24.376625785668116
146,22.1621395444664
2,1, 5, 3, 0, 7,50.00,60.00,Friday
7,19.8
140,24.673186979246837
141,24.915782938104905
142,23.92679184608377
143,24.050914220778539
144,23.815898620913594
145,24.315083333409935
146,22.971675027036775
2,1, 5, 3, 0, 8, 0.00,10.00,Friday
7,20.1
140,24.670747185683064
141,24.921034491505254
142,23.761107155180406
143,23.974431543716024
144,23.756585771623745
145,24.26425070440446
146,23.505227425093329
2,1, 5, 3, 0, 8,10.00,20.00,Friday
7,20.1
140,24.65954675022081
141,24.926354712966054
142,23.639955220064196
143,23.831073231985316
144,23.682588150741588
145,24.20023190750346
146,23.289477901711128
2,1, 5, 3, 0, 8,20.00,30.00,Friday
7,20.7
140,24.682735769147869
141,24.956604689904837
142,23.88914819686345
143,23.773317091433829
144,23.63310338295635
145,24.160996648482415
146,22.68624659367288
2,1, 5, 3, 0, 8,30.00,40.00,Friday
7,21.2
140,24.71088164497782
141,24.99512561963803
142,24.1631262934709
143,23.709856827782877
144,23.58447621176981
145,24.12079023112034
146,23.125317098055434
2,1, 5, 3, 0, 8,40.00,50.00,Friday
7,22.0
140,24.764137960365259
141,25.073142748732275
142,24.50213497085285
143,23.594942233466349
144,23.531214948337366
145,24.07533258051384
146,23.348898665356346
2,1, 5, 3, 0, 8,50.00,60.00,Friday
7,22.9
140,24.817340294748264
141,25.15204919114311
142,24.65022212363144
143,23.519314347707924
144,23.491929035127386
145,24.042511489845709
146,23.592910411561154
2,1, 5, 3, 0, 9, 0.00,10.00,Friday
7,24.3
140,24.88378407996564
141,25.24215965636948
142,24.74174693954733
143,23.484560536949908
144,23.465346579326086
145,24.022554628103849
146,23.839035468543487
2,1, 5, 3, 0, 9,10.00,20.00,Friday
7,24.3
140,24.928644848573087
141,25.310411320666597
142,24.79667797844579
143,23.473297208620296
144,23.4367104359858
145,23.998041987245057
146,23.75743523885303
2,1, 5, 3, 0, 9,20.00,30.00,Friday
7,24.4
140,24.94951885320582
141,25.35129525988321
142,24.832169617957754
143,23.478790070656623
144,23.417219973517086
145,23.980539014326277
146,23.745761844003615
2,1, 5, 3, 0, 9,30.00,40.00,Friday
7,24.7
140,24.96664445213462
141,25.379912263622008
142,24.87932474176419
143,23.50471420747019
144,23.411224851003437
145,23.97510914023863
146,23.890110749587959
2,1, 5, 3, 0, 9,40.00,50.00,Friday
7,25.1
140,25.00002963332793
141,25.41554156419257
142,24.94445926516795
143,23.555574301189187
144,23.418296789092705
145,23.98047954441459
146,24.022576429994815
2,1, 5, 3, 0, 9,50.00,60.00,Friday
7,25.4
140,25.047883621434548
141,25.459220460023709
142,25.030075913373897
143,23.632724052018145
144,23.43425997434569
145,23.992615626072778
146,23.934991329252598
2,1, 5, 3, 0,10, 0.00,10.00,Friday
7,25.9
140,26.59593582400364
141,27.02270746639314
142,26.532946975935759
143,23.71574288615078
144,23.46000632230306
145,24.01355968522525
146,24.25314755088586
2,1, 5, 3, 0,10,10.00,20.00,Friday
7,26.2
140,26.943658859376894
141,27.33017971125894
142,26.85556248229051
143,23.82210693126101
144,23.491339062048064
145,24.03820736111541
146,24.379707101558819
2,1, 5, 3, 0,10,20.00,30.00,Friday
7,26.3
140,27.175796072899506
141,27.550114454186315
142,27.05705320760989
143,23.94457672152523
144,23.53611608618216
145,24.06711150820955
146,24.355948231501537
2,1, 5, 3, 0,10,30.00,40.00,Friday
7,26.4
140,27.615158356374054
141,27.967236639977604
142,27.41484567912454
143,24.167460203201349
144,23.599012623578337
145,24.109828882150816
146,24.310644280462257
2,1, 5, 3, 0,10,40.00,50.00,Friday
7,26.4
140,27.79019674947288
141,28.127085603213243
142,27.53438138857928
143,24.36119966434851
144,23.667465573855539
145,24.15428799746657
146,24.298974869278984
2,1, 5, 3, 0,10,50.00,60.00,Friday
7,25.9
140,27.781834543613024
141,28.10789896256105
142,27.487656000140818
143,24.53703971699642
144,23.739300603441614
145,24.20622902326239
146,24.15741892543561
2,1, 5, 3, 0,11, 0.00,10.00,Friday
7,26.2
140,27.783030668781945
141,28.097452972539967
142,27.4935918659216
143,24.720198457535675
144,23.82801557834503
145,24.274853375203788
146,24.123403805781558
2,1, 5, 3, 0,11,10.00,20.00,Friday
7,26.9
140,27.86215080829989
141,28.16637669641213
142,27.652921450421645
143,24.871864477179586
144,23.93016220220949
145,24.356023605830705
146,24.73724433997325
2,1, 5, 3, 0,11,20.00,30.00,Friday
7,27.2
140,27.922377139588908
141,28.21587950799476
142,27.780689142986544
143,25.03581586368228
144,24.02143960260617
145,24.426664993859988
146,25.011732255724018
2,1, 5, 3, 0,11,30.00,40.00,Friday
7,27.3
140,28.00280527956927
141,28.27888316026232
142,27.91480004777248
143,25.279222207510015
144,24.13781629761985
145,24.517884235548558
146,25.236977138308576
2,1, 5, 3, 0,11,40.00,50.00,Friday
7,27.4
140,28.059000222490199
141,28.321443492346224
142,27.965106156038133
143,25.45792836391603
144,24.255160947254333
145,24.60995211971212
146,24.855701376826553
2,1, 5, 3, 0,11,50.00,60.00,Friday
7,27.6
140,28.158350277654578
141,28.397559122174113
142,28.092201608260884
143,25.739006371269057
144,24.38770617891496
145,24.71561656498658
146,25.248020946791259
2,1, 5, 3, 0,12, 0.00,10.00,Friday
7,28.5
140,28.246354002763714
141,28.469122571542095
142,28.2821327839565
143,25.9369863182956
144,24.53092990864219
145,24.83265012595947
146,25.56685653436519
2,1, 5, 3, 0,12,10.00,20.00,Friday
7,28.0
140,28.305949593497286
141,28.51248854727867
142,28.370038965979597
143,26.13653469480249
144,24.65739728370552
145,24.932438931504949
146,25.66536041801839
2,1, 5, 3, 0,12,20.00,30.00,Friday
7,29.1
140,28.3698156510487
141,28.56394189020814
142,28.51217614071058
143,26.298862743059666
144,24.81310152751942
145,25.06046085185607
146,26.015162212739
2,1, 5, 3, 0,12,30.00,40.00,Friday
7,29.2
140,28.453592871511238
141,28.628380433142828
142,28.652129299583025
143,26.520544102766686
144,24.973642650495873
145,25.1846649706329
146,26.192656764553854
2,1, 5, 3, 0,12,40.00,50.00,Friday
7,29.9
140,28.519078064179277
141,28.67877607703955
142,28.75264423623458
143,26.69541651114103
144,25.136215332585228
145,25.313670500503883
146,26.711210848401558
2,1, 5, 3, 0,12,50.00,60.00,Friday
7,30.5
140,28.634416831532208
141,28.768216416212824
142,28.936086863096326
143,26.95502601613756
144,25.351194978786695
145,25.47269683762341
146,27.001210623758099
2,1, 5, 3, 0,13, 0.00,10.00,Friday
7,31.4
140,28.700633602060127
141,28.821074658191436
142,29.103026060826978
143,27.091097494023538
144,25.530099840982549
145,25.631248318362908
146,27.696035860590017
2,1, 5, 3, 0,13,10.00,20.00,Friday
7,30.8
140,28.749203172729865
141,28.853913455071319
142,29.167899073255485
143,27.247285018562559
144,25.682141985782104
145,25.752476249631166
146,27.12594774333394
2,1, 5, 3, 0,13,20.00,30.00,Friday
7,30.6
140,28.845084818673425
141,28.920429680083154
142,29.222165048451509
143,27.498645486178654
144,25.891653810201846
145,25.9257339087982
146,27.555476951673577
2,1, 5, 3, 0,13,30.00,40.00,Friday
7,30.8
140,28.925604165217366
141,28.976656806103454
142,29.29211555398093
143,27.68975127642685
144,26.077700845288026
145,26.081938132694398
146,27.683157175494999
2,1, 5, 3, 0,13,40.00,50.00,Friday
7,30.9
140,28.972578075019976
141,29.01020432570126
142,29.38951210079763
143,27.806959366251506
144,26.245856238301827
145,26.226185666782194
146,27.04035623381774
2,1, 5, 3, 0,13,50.00,60.00,Friday
7,31.5
140,29.010534443560308
141,29.030615658337845
142,29.513078526132277
143,27.934866783829528
144,26.395768406745185
145,26.352134864553098
146,27.51365030143949
2,1, 5, 3, 0,14, 0.00,10.00,Friday
7,31.8
140,29.076406550924287
141,29.073787885316795
142,29.441334902542708
143,28.095277066240013
144,26.576651281789297
145,26.506866016676115
146,28.399179132706008
2,1, 5, 3, 0,14,10.00,20.00,Friday
7,32.0
140,29.213193747130356
141,29.18026740716482
142,29.740728712806413
143,28.278213368878306
144,26.78003937799107
145,26.683751063774375
146,27.59630937151034
2,1, 5, 3, 0,14,20.00,30.00,Friday
7,31.8
140,29.27394867167104
141,29.225829143766807
142,29.72804890632238
143,28.379880834081896
144,26.908458594662574
145,26.7974400692748
146,28.45059700307931
2,1, 5, 3, 0,14,30.00,40.00,Friday
7,31.6
140,29.348741820960293
141,29.2814811307666
142,29.84291754034603
143,28.490996661528074
144,27.04971380040996
145,26.92826153224896
146,27.820473572094025
2,1, 5, 3, 0,14,40.00,50.00,Friday
7,32.8
140,29.478575296870756
141,29.385017267968388
142,30.063488565157109
143,28.63171562476906
144,27.24052175069659
145,27.102519742512169
146,29.160841624450677
2,1, 5, 3, 0,14,50.00,60.00,Friday
7,33.5
140,29.630813808340478
141,29.504015907498589
142,30.210521223882969
143,28.783715202507559
144,27.42640253039226
145,27.265293716750479
146,29.44315189877601
2,1, 5, 3, 0,15, 0.00,10.00,Friday
7,31.8
140,29.637039169163957
141,29.480538139064384
142,30.127665362091294
143,28.90125230646934
144,27.49850232415787
145,27.34471522962441
146,28.493276515091716
2,1, 5, 3, 0,15,10.00,20.00,Friday
7,32.4
140,29.708751331937834
141,29.52731412855355
142,30.247675371527167
143,29.009691752589466
144,27.65696805668145
145,27.489765748070619
146,29.07624609417278
2,1, 5, 3, 0,15,20.00,30.00,Friday
7,32.8
140,29.857443847987164
141,29.636421772696264
142,30.42953284849556
143,29.172325106261675
144,27.850719345711114
145,27.65713416673787
146,29.11129647039365
2,1, 5, 3, 0,15,30.00,40.00,Friday
7,33.7
140,29.976207480403084
141,29.72632390835242
142,30.589175152447333
143,29.291814637876735
144,28.003968772279018
145,27.79710246639248
146,28.785949334475
2,1, 5, 3, 0,15,40.00,50.00,Friday
7,32.9
140,30.048425983306147
141,29.763240423346376
142,30.54348673842328
143,29.42552537749442
144,28.112806980702805
145,27.89383212611751
146,29.589304313991535
2,1, 5, 3, 0,15,50.00,60.00,Friday
7,33.3
140,30.149973889237339
141,29.831830913161349
142,30.63642323610216
143,29.551770253561317
144,28.268963355749898
145,28.032485733060594
146,29.23612152054865
2,1, 5, 3, 0,16, 0.00,10.00,Friday
7,33.9
140,30.302718253303089
141,29.94412602007925
142,30.963476358258565
143,29.702499995120158
144,28.45233187657403
145,28.19423602976865
146,30.92543962354625
2,1, 5, 3, 0,16,10.00,20.00,Friday
7,33.6
140,30.43086193076377
141,30.02072017519677
142,31.076781146955349
143,29.87461454107948
144,28.597313630421707
145,28.31818974545781
146,30.73787584611612
2,1, 5, 3, 0,16,20.00,30.00,Friday
7,32.9
140,30.4811403983357
141,30.032847183814977
142,30.83740038954374
143,29.997530882961045
144,28.718984361688287
145,28.422157297698019
146,29.331629295178275
2,1, 5, 3, 0,16,30.00,40.00,Friday
7,33.3
140,30.543519134227787
141,30.06406944086386
142,30.885474266893618
143,30.123049774913633
144,28.845127919541939
145,28.534269139484459
146,29.450820420328307
2,1, 5, 3, 0,16,40.00,50.00,Friday
7,33.5
140,30.608644940844056
141,30.085944495092105
142,31.135639616381967
143,30.30314730536064
144,28.9813681010746
145,28.648564623840085
146,30.739769686041027
2,1, 5, 3, 0,16,50.00,60.00,Friday
7,32.9
140,30.636662534676483
141,30.06293621235161
142,31.245408427755888
143,30.51153312984426
144,29.08075596972862
145,28.726408673749345
146,30.901435814991847
2,1, 5, 3, 0,17, 0.00,10.00,Friday
7,32.6
140,30.65254356760922
141,30.054083295401904
142,31.488919535787205
143,30.65893684061607
144,29.186827787903395
145,28.805943689187815
146,31.54050640096855
2,1, 5, 3, 0,17,10.00,20.00,Friday
7,30.9
140,30.643604901294724
141,30.011863463208525
142,30.87367201083121
143,30.811681688053999
144,29.219953497091308
145,28.814020278371534
146,30.475123850739619
2,1, 5, 3, 0,17,20.00,30.00,Friday
7,29.4
140,30.609350126430728
141,29.936441687215188
142,30.133056357820878
143,31.014552120165967
144,29.273549318761885
145,28.85158236861004
146,29.36831041136855
2,1, 5, 3, 0,17,30.00,40.00,Friday
7,29.0
140,30.605498234709683
141,29.913863645600239
142,30.081166071281659
143,31.099539962419457
144,29.306362970502954
145,28.87741610346395
146,29.068043708572398
2,1, 5, 3, 0,17,40.00,50.00,Friday
7,28.4
140,30.598103104005977
141,29.876350870993876
142,30.105322704020183
143,31.219323725664017
144,29.322385184018449
145,28.888065179476578
146,29.06981451659858
2,1, 5, 3, 0,17,50.00,60.00,Friday
7,29.2
140,30.64440771142295
141,29.89003165087814
142,30.17221461983799
143,31.335849225159284
144,29.34372774072933
145,28.908651564918118
146,29.24471455971162
2,1, 5, 3, 0,18, 0.00,10.00,Friday
7,28.0
140,30.657086249943214
141,29.891039156408497
142,29.906683585899964
143,31.370506418649844
144,29.318941657752437
145,28.88848001613266
146,28.452454552695575
2,1, 5, 3, 0,18,10.00,20.00,Friday
7,26.8
140,30.64951762773171
141,29.873494490868909
142,29.765788386577815
143,31.392024677108208
144,29.288548439953084
145,28.861678602343177
146,28.028407272009184
2,1, 5, 3, 0,18,20.00,30.00,Friday
7,26.8
140,30.658278814462819
141,29.86921837623199
142,29.635667141628127
143,31.414626582650216
144,29.260248727942178
145,28.839890274143927
146,27.953092012485624
2,1, 5, 3, 0,18,30.00,40.00,Friday
7,27.5
140,30.690761407259303
141,29.89720206961905
142,29.766431887154988
143,31.408659139982306
144,29.24189368345213
145,28.82883979588231
146,28.28310491577274
2,1, 5, 3, 0,18,40.00,50.00,Friday
7,28.0
140,30.73715447438906
141,29.940140276408309
142,29.922408517654977
143,31.38674044265989
144,29.214931055730955
145,28.810312735339584
146,28.495195075468037
2,1, 5, 3, 0,18,50.00,60.00,Friday
7,28.3
140,30.757899578742163
141,29.96131622032923
142,30.22728139226751
143,31.35732809685384
144,29.182247688357938
145,28.785589882758015
146,28.63227454522881
2,1, 5, 3, 0,19, 0.00,10.00,Friday
7,28.1
140,29.604468914769809
141,28.80756724950862
142,29.162615229826657
143,31.314944862938295
144,29.142689457998654
145,28.754451161901863
146,28.543880540859854
2,1, 5, 3, 0,19,10.00,20.00,Friday
7,28.4
140,28.75105547531404
141,27.88754299704882
142,28.401617610607663
143,31.251664094096573
144,29.10444256517403
145,28.72573880372891
146,28.709769223655088
2,1, 5, 3, 0,19,20.00,30.00,Friday
7,28.3
140,28.826085441588888
141,27.954446846973818
142,28.45704276873832
143,31.208951336093649
144,29.067911245878109
145,28.696314485261167
146,28.691463662412013
2,1, 5, 3, 0,19,30.00,40.00,Friday
7,28.1
140,28.815843492817529
141,27.942418323891159
142,28.417165020236614
143,31.141331690041054
144,29.023793958620318
145,28.662213196278957
146,28.714870693578388
2,1, 5, 3, 0,19,40.00,50.00,Friday
7,27.9
140,28.641369233988635
141,27.75850332411452
142,28.259265481570578
143,31.062583473073258
144,28.977555645823885
145,28.62569593878557
146,28.656958731287415
2,1, 5, 3, 0,19,50.00,60.00,Friday
7,27.8
140,28.473268665260265
141,27.57526232790711
142,28.101113119433898
143,30.989964904351124
144,28.933298144989459
145,28.590940472591634
146,28.453422635591843
2,1, 5, 3, 0,20, 0.00,10.00,Friday
7,27.7
140,28.37978735849442
141,27.466407361543025
142,28.021233059610056
143,30.922175401970759
144,28.89114732492634
145,28.557646187014087
146,28.377020014673478
2,1, 5, 3, 0,20,10.00,20.00,Friday
7,27.4
140,28.333700408298417
141,27.41337100942623
142,27.99242481963351
143,30.852669201067909
144,28.84616935855116
145,28.522301260071523
146,28.256583391625825
2,1, 5, 3, 0,20,20.00,30.00,Friday
7,27.0
140,28.307581641347448
141,27.401389480836934
142,27.95475331515666
143,30.80025257081771
144,28.80378176774027
145,28.48829649916592
146,27.93835386714853
2,1, 5, 3, 0,20,30.00,40.00,Friday
7,26.9
140,28.257661164195839
141,27.369256316635327
142,27.804115801235196
143,30.71969427774514
144,28.752653225645444
145,28.448311300467787
146,27.83724414532677
2,1, 5, 3, 0,20,40.00,50.00,Friday
7,26.6
140,28.18998802183309
141,27.31569582116476
142,27.62095864361419
143,30.625608237320603
144,28.692756229517447
145,28.40023236818938
146,28.019182220290799
2,1, 5, 3, 0,20,50.00,60.00,Friday
7,26.3
140,28.147825700433047
141,27.28455674105793
142,27.43043860571325
143,30.561939824944028
144,28.64104762292135
145,28.35696938281979
146,27.217027410878609
2,1, 5, 3, 0,21, 0.00,10.00,Friday
7,26.0
140,28.08248170098361
141,27.23180777902439
142,27.23897066423672
143,30.474553782616235
144,28.576109804792528
145,28.303152698037346
146,27.168355278893686
2,1, 5, 3, 0,21,10.00,20.00,Friday
7,26.3
140,28.0179317239547
141,27.179257643420376
142,27.256850881003968
143,30.369980467517587
144,28.51519034948778
145,28.25233686764637
146,27.37374602629269
2,1, 5, 3, 0,21,20.00,30.00,Friday
7,26.1
140,27.985461503519355
141,27.157469348617668
142,27.349495356678877
143,30.302748984550804
144,28.468284474718297
145,28.20940362268387
146,27.717603846163344
2,1, 5, 3, 0,21,30.00,40.00,Friday
7,26.0
140,27.926868776461107
141,27.116211336761368
142,27.4318732227822
143,30.201368651268159
144,28.394830704754303
145,28.151808670286195
146,27.556898104911317
2,1, 5, 3, 0,21,40.00,50.00,Friday
7,26.2
140,27.864194707428525
141,27.076912238726956
142,27.442701882819319
143,30.082545083008737
144,28.31605488758288
145,28.096036915970829
146,27.491579894397384
2,1, 5, 3, 0,21,50.00,60.00,Friday
7,25.9
140,27.796622295497749
141,27.035653228864616
142,27.40586479163317
143,29.97354259286252
144,28.240642048134313
145,28.041233466255564
146,27.313521285180838
2,1, 5, 3, 0,22, 0.00,10.00,Friday
7,26.1
140,27.743555887756778
141,27.010274433782326
142,27.259629164040036
143,29.873890539820246
144,28.173573940629198
145,27.995825549413824
146,27.275051884106849
2,1, 5, 3, 0,22,10.00,20.00,Friday
7,25.9
140,27.69322018028312
141,26.988090938743519
142,27.076472781176937
143,29.77469578965659
144,28.10045008638789
145,27.947630897219484
146,27.092360623364799
2,1, 5, 3, 0,22,20.00,30.00,Friday
7,25.3
140,27.62060358342835
141,26.9425802120072
142,26.90434530895443
143,29.672941267209983
144,28.012339844183253
145,27.883907523996123
146,27.064577957577538
2,1, 5, 3, 0,22,30.00,40.00,Friday
7,25.3
140,27.5468160917855
141,26.892607807717096
142,26.877123263126405
143,29.57011728314431
144,27.929378703535187
145,27.825177763087713
146,27.24323261463504
2,1, 5, 3, 0,22,40.00,50.00,Friday
7,25.4
140,27.487137694358898
141,26.85389008175641
142,27.012649732241547
143,29.467458131129449
144,27.858837935775637
145,27.774789843681999
146,27.00298163005133
2,1, 5, 3, 0,22,50.00,60.00,Friday
7,25.2
140,27.431944509739638
141,26.820502210490689
142,27.077953970208509
143,29.364840460306998
144,27.787500209721534
145,27.71634632302297
146,26.77530476704698
2,1, 5, 3, 0,23, 0.00,10.00,Friday
7,25.1
140,27.40210128414489
141,26.80641927023722
142,26.909620260365494
143,29.294272467801706
144,27.72506976393622
145,27.664222955833254
146,27.338088527631784
2,1, 5, 3, 0,23,10.00,20.00,Friday
7,25.6
140,27.34838756469971
141,26.78566005970952
142,26.854789892011099
143,29.162107552976715
144,27.654067439078827
145,27.60107774383426
146,26.89306746994279
2,1, 5, 3, 0,23,20.00,30.00,Friday
7,25.5
140,27.29921774571505
141,26.766165255191866
142,26.919591816633344
143,29.04852133729186
144,27.585340080151917
145,27.54250629171921
146,26.741919200398134
2,1, 5, 3, 0,23,30.00,40.00,Friday
7,25.0
140,27.262486349268376
141,26.741268616069669
142,26.71715159989341
143,28.985905097024224
144,27.517943456962436
145,27.485696084280194
146,26.3738509979394
2,1, 5, 3, 0,23,40.00,50.00,Friday
7,25.0
140,27.203505359043424
141,26.703087550860656
142,26.6167742437211
143,28.88192769460666
144,27.44816092216583
145,27.419353553970195
146,26.377415510577689
2,1, 5, 3, 0,23,50.00,60.00,Friday
7,25.3
140,27.14621599905005
141,26.67284818066508
142,26.65386463433573
143,28.7573425637099