Program Version,EnergyPlus, Version 9.5.0-de239b2e5f, YMD=2021.12.10 07:04
1,5,Environment Title[],Latitude[deg],Longitude[deg],Time Zone[],Elevation[m]
2,8,Day of Simulation[],Month[],Day of Month[],DST Indicator[1=yes 0=no],Hour[],StartMinute[],EndMinute[],DayType
3,5,Cumulative Day of Simulation[],Month[],Day of Month[],DST Indicator[1=yes 0=no],DayType  ! When Daily Report Variables Requested
4,2,Cumulative Days of Simulation[],Month[]  ! When Monthly Report Variables Requested
5,1,Cumulative Days of Simulation[] ! When Run Period Report Variables Requested
6,1,Calendar Year of Simulation[] ! When Annual Report Variables Requested
7,1,Environment,Site Outdoor Air Drybulb Temperature [C] !TimeStep
140,1,TZCUB5,Zone Mean Air Temperature [C] !TimeStep
141,1,TZCUB6,Zone Mean Air Temperature [C] !TimeStep
142,1,TZCUB7,Zone Mean Air Temperature [C] !TimeStep
143,1,TZLABORATORIOS,Zone Mean Air Temperature [C] !TimeStep
144,1,TZTECHOCUB5,Zone Mean Air Temperature [C] !TimeStep
145,1,TZTECHOCUB6,Zone Mean Air Temperature [C] !TimeStep
146,1,TZTECHOCUB7,Zone Mean Air Temperature [C] !TimeStep
632,1,TZCUB7 PERSONAS,Zone Thermal Comfort Fanger Model PMV [] !TimeStep
633,1,TZCUB7 PERSONAS,Zone Thermal Comfort Fanger Model PPD [%] !TimeStep
634,1,TZCUB6 PERSONAS,Zone Thermal Comfort Fanger Model PMV [] !TimeStep
635,1,TZCUB6 PERSONAS,Zone Thermal Comfort Fanger Model PPD [%] !TimeStep
636,1,TZCUB5 PERSONAS,Zone Thermal Comfort Fanger Model PMV [] !TimeStep
637,1,TZCUB5 PERSONAS,Zone Thermal Comfort Fanger Model PPD [%] !TimeStep
End of Data Dictionary
1,RUN PERIOD 1,  18.51, -99.14,  -6.00,1219.00
2,1, 5, 3, 0, 1, 0.00,10.00,Friday
7,23.0
140,26.79231077440164
141,26.456661752808988
142,26.19985007418901
143,28.09339035994895
144,26.90298061281505
145,26.951191749889529
146,26.00021562182887
632,-2.5340645786929656
633,94.11732774462695
634,-1.7039124902011549
635,61.96103387535687
636,-1.4837695980077759
637,50.01929308673329
2,1, 5, 3, 0, 1,10.00,20.00,Friday
7,23.0
140,26.722837562775216
141,26.39864270147735
142,26.169790387917418
143,28.0209158044078
144,26.856950345030289
145,26.916658658960626
146,25.617600444153106
632,-2.558177397112039
633,94.57035177894706
634,-1.7355252465533449
635,63.644227359940028
636,-1.5241625430305384
637,52.214149656135088
2,1, 5, 3, 0, 1,20.00,30.00,Friday
7,23.0
140,26.594235832733177
141,26.294789540836736
142,26.174208911257766
143,27.892186992517556
144,26.78095213583441
145,26.85096889891212
146,25.311478501912587
632,-2.5621341618265918
633,94.64219306750961
634,-1.784997429678601
635,66.24242398497671
636,-1.5879513615235786
637,55.68935591258441
2,1, 5, 3, 0, 1,30.00,40.00,Friday
7,22.8
140,26.500736681569966
141,26.222474961316203
142,26.073652223435646
143,27.786913385531859
144,26.712354330181069
145,26.793702329610004
146,25.531321683353498
632,-2.6052687445659274
633,95.3809057927935
634,-1.8221592350752494
635,68.15910746526161
636,-1.6398194201820607
637,58.508248938650158
2,1, 5, 3, 0, 1,40.00,50.00,Friday
7,22.7
140,26.48801145965776
141,26.216884865080226
142,25.981128431805634
143,27.73256862142115
144,26.650982962841398
145,26.746167338772027
146,25.104619129583044
632,-2.649821920700098
633,96.06159705994358
634,-1.832681567516436
635,68.69558610503973
636,-1.6574582300864327
637,59.462785026491399
2,1, 5, 3, 0, 1,50.00,60.00,Friday
7,22.6
140,26.419146773137059
141,26.16957036558976
142,25.802308679435137
143,27.61247757927065
144,26.571948790040609
145,26.677979332203344
146,25.55413404699716
632,-2.720354001082036
633,96.98052989282243
634,-1.8608879778139802
635,70.11883820942772
636,-1.6985188947435719
637,61.672353958490109
2,1, 5, 3, 0, 2, 0.00,10.00,Friday
7,22.5
140,26.359641922177909
141,26.128401422601216
142,25.83680317025173
143,27.514912107981475
144,26.501018148006247
145,26.620291958450804
146,25.05926964315507
632,-2.7203736692139688
633,96.98076063952552
634,-1.8861292153473964
635,71.37283684910071
636,-1.735324851884102
637,63.63360873978266
2,1, 5, 3, 0, 2,10.00,20.00,Friday
7,22.4
140,26.307999246590783
141,26.093349044146163
142,25.879587314817266
143,27.419411903673333
144,26.427714836951468
145,26.560484188422647
146,25.20501811548986
632,-2.715921499590405
633,96.92817870816347
634,-1.908522593095029
635,72.46863821967172
636,-1.7686010445610017
637,65.38674065217694
2,1, 5, 3, 0, 2,20.00,30.00,Friday
7,22.3
140,26.258834268714688
141,26.060705335482337
142,25.903537549522548
143,27.31696554145134
144,26.34926046484138
145,26.495839324440973
146,25.05881549836115
632,-2.716936740450029
633,96.94023095618292
634,-1.9299419678683796
635,73.50115316318352
636,-1.7988517032220036
637,66.96081864804472
2,1, 5, 3, 0, 2,30.00,40.00,Friday
7,22.4
140,26.214539288786676
141,26.03331852142903
142,25.88169970684128
143,27.213253598633516
144,26.27470327514552
145,26.434691424478307
146,24.990063963592325
632,-2.7333956520590378
633,97.13056243174094
634,-1.9475847633103454
635,74.33956436142151
636,-1.8277028009845602
637,68.44210589286783
2,1, 5, 3, 0, 2,40.00,50.00,Friday
7,22.5
140,26.17515962020116
141,26.01089955400022
142,25.768430946149658
143,27.111118489785388
144,26.20119373213429
145,26.37493585068173
146,25.249323155182176
632,-2.7838311704542768
633,97.65692127936687
634,-1.9631090058977403
635,75.0679202315144
636,-1.8544887552718193
637,69.79790835646158
2,1, 5, 3, 0, 2,50.00,60.00,Friday
7,22.3
140,26.130789385325448
141,25.983134975321567
142,25.664689331352386
143,27.009721421928796
144,26.124074928490797
145,26.311875939826885
146,25.033003995206088
632,-2.8309730648205679
633,98.07701156776915
634,-1.9838856990990779
635,76.02845043718514
636,-1.8863092890341009
637,71.38171274913262
2,1, 5, 3, 0, 3, 0.00,10.00,Friday
7,22.1
140,26.100123177620256
141,25.960840706977856
142,25.72067301566855
143,26.941936325454834
144,26.05419605303352
145,26.256658053140677
146,24.655465290718113
632,-2.826003609602769
633,98.03579356143533
634,-2.0027922110481515
635,76.88783063738669
636,-1.912838226551182
637,72.67792849155916
2,1, 5, 3, 0, 3,10.00,20.00,Friday
7,22.0
140,26.046420644856096
141,25.92189568524449
142,25.623949850741668
143,26.83510524040491
144,25.975076817917079
145,26.191203722718919
146,24.70880126926108
632,-2.8717559821243388
633,98.38974435461572
634,-2.0281970749018898
635,78.01969350409476
636,-1.9484984979450598
637,74.38268072860844
2,1, 5, 3, 0, 3,20.00,30.00,Friday
7,22.0
140,25.985457519966045
141,25.879192362619958
142,25.601529032934424
143,26.710607721947093
144,25.892922097341953
145,26.123874619263327
146,24.44413403488875
632,-2.890826412139653
633,98.52114915378179
634,-2.0531059978662418
635,79.10302085823358
636,-1.9850359405946699
637,76.08113897634513
2,1, 5, 3, 0, 3,30.00,40.00,Friday
7,21.9
140,25.93040563088012
141,25.84128076726511
142,25.495911340940834
143,26.59861133271967
144,25.817047127602714
145,26.062250159042809
146,24.308856121656278
632,-2.937138004120929
633,98.80427283926737
634,-2.076990235702975
635,80.1163141179269
636,-2.020102928321661
637,77.66198160710307
2,1, 5, 3, 0, 3,40.00,50.00,Friday
7,21.9
140,25.90345710456459
141,25.82175155322783
142,25.312228684034375
143,26.525889421019579
144,25.744742463637484
145,26.003493525550995
146,25.015125431849847
632,-3.0091622834578226
633,99.15505293952232
634,-2.0936085836981968
635,80.80622497336785
636,-2.0438232368045097
637,78.70242190382302
2,1, 5, 3, 0, 3,50.00,60.00,Friday
7,21.7
140,25.872141294887599
141,25.79661256369311
142,25.240511248886148
143,26.44926893300663
144,25.675582703609
145,25.947163840693415
146,24.592355338082059
632,-3.0491905737992877
633,99.30964702995242
634,-2.113782430952414
635,81.62667142134353
636,-2.070567575484688
637,79.84632835153161
2,1, 5, 3, 0, 4, 0.00,10.00,Friday
7,21.7
140,25.802225155107416
141,25.743322135149375
142,24.934309154668968
143,26.30765171074529
144,25.587773804906278
145,25.871225778737377
146,25.301302485134508
632,-3.1642689462994046
633,99.62817119095699
634,-2.1444694649414628
635,82.83795284626456
636,-2.111994978003261
637,81.55474307902094
2,1, 5, 3, 0, 4,10.00,20.00,Friday
7,21.8
140,25.745033610518698
141,25.702319672996546
142,24.75951362372851
143,26.190504759133867
144,25.512800985667867
145,25.809287495658368
146,25.15408026686198
632,-3.2360093203162094
633,99.75456934506534
634,-2.1675993072055625
635,83.72100221373482
636,-2.1457210228304577
637,82.88639889078496
2,1, 5, 3, 0, 4,20.00,30.00,Friday
7,21.5
140,25.719795037749159
141,25.682677517309508
142,24.739619507200808
143,26.133574310981659
144,25.440596987035513
145,25.748432741444597
146,24.912706783613929
632,-3.259941832807362
633,99.7874545958024
634,-2.1873003598235138
635,84.45247705023339
636,-2.171567981770065
637,83.86989287168669
2,1, 5, 3, 0, 4,30.00,40.00,Friday
7,21.4
140,25.670040802910689
141,25.644609511956785
142,24.66254402467105
143,26.033071609493729
144,25.362544494853819
145,25.680408871315039
146,24.88363683116735
632,-3.301120629518402
633,99.8351077680524
634,-2.2121885689885736
635,85.34897301119749
636,-2.205043857247505
637,85.09478517165837
2,1, 5, 3, 0, 4,40.00,50.00,Friday
7,21.1
140,25.620407382299239
141,25.605911369248369
142,24.560127937605306
143,25.94361061454429
144,25.28434578929661
145,25.611652288590045
146,24.486256695808828
632,-3.3547986790522925
633,99.88301204346536
634,-2.2400178638894876
635,86.31451451208797
636,-2.2410875214676579
637,86.35084330062492
2,1, 5, 3, 0, 4,50.00,60.00,Friday
7,21.2
140,25.536478366145688
141,25.542905476891506
142,24.41269198501179
143,25.800371138784894
144,25.20544421700056
145,25.541883752748203
146,24.897801942557974
632,-3.42000374128103
633,99.92436921608203
634,-2.2709081691062686
635,87.34016313910382
636,-2.286442777786406
637,87.83751435016954
2,1, 5, 3, 0, 5, 0.00,10.00,Friday
7,21.0
140,25.466536119059854
141,25.490436231778334
142,24.281350581641985
143,25.6869738180073
144,25.126194889063564
145,25.47214673947201
146,24.848835618046694
632,-3.483174260779834
633,99.95145829447243
634,-2.3035353990228137
635,88.37044027543478
636,-2.3275251600408635
637,89.09310673279144
2,1, 5, 3, 0, 5,10.00,20.00,Friday
7,20.8
140,25.43686625423707
141,25.468469982497575
142,24.415657353403096
143,25.619598412633317
144,25.05105736836159
145,25.40697902396082
146,23.869368138969486
632,-3.454741484980788
633,99.94058196992435
634,-2.321767346847007
635,88.9223533648856
636,-2.3548311654234799
637,89.87975263088232
2,1, 5, 3, 0, 5,20.00,30.00,Friday
7,20.9
140,25.39685763961524
141,25.440547267744049
142,24.473655149044978
143,25.523659344092875
144,24.977021530541433
145,25.34165528200314
146,24.087897580152267
632,-3.4424783368605529
633,99.93525312884246
634,-2.340415483183169
635,89.46921659035836
636,-2.379929553808626
637,90.569206995642
2,1, 5, 3, 0, 5,30.00,40.00,Friday
7,20.8
140,25.33932888335893
141,25.39939041296268
142,24.37902032612529
143,25.404899247843699
144,24.893798106821046
145,25.267215511658049
146,24.197956702331014
632,-3.4860325914901488
633,99.952446179581
634,-2.3669502759996208
635,90.21667085203102
636,-2.416785505088369
637,91.52381326583002
2,1, 5, 3, 0, 5,40.00,50.00,Friday
7,21.1
140,25.32200827345322
141,25.391281052902259
142,24.462118341676339
143,25.334810633081358
144,24.82992505130789
145,25.21296185155058
146,23.791934186238497
632,-3.4653073110382994
633,99.94485499968249
634,-2.373325046699333
635,90.39088918793672
636,-2.4306038611314806
637,91.86416597860145
2,1, 5, 3, 0, 5,50.00,60.00,Friday
7,20.8
140,25.27645817347041
141,25.36110856336435
142,24.53344773986207
143,25.227767564006326
144,24.749680233293124
145,25.14147436988343
146,23.58097609502106
632,-3.454647902116366
633,99.94054283594923
634,-2.3969469631690427
635,91.01848180820763
636,-2.464193774201762
637,92.65215201060193
2,1, 5, 3, 0, 6, 0.00,10.00,Friday
7,20.8
140,25.213796700333075
141,25.317057701500788
142,24.51563904435461
143,25.102306206690483
144,24.665755323000054
145,25.066833300268916
146,23.8040439510442
632,-3.4690188448920069
633,99.9462894040841
634,-2.4230363658120614
635,91.67895291208214
636,-2.5014804647839066
637,93.46274360066204
2,1, 5, 3, 0, 6,10.00,20.00,Friday
7,20.1
140,25.15500517841021
141,25.26621583313743
142,24.208527851297278
143,25.035371899229
144,24.586541745344868
145,24.994937457503384
146,23.67844190581809
632,-3.590887387448582
633,99.97830720282694
634,-2.4628462344560799
635,92.62160368305897
636,-2.547790633030499
637,94.37843043522533
2,1, 5, 3, 0, 6,20.00,30.00,Friday
7,20.1
140,25.077471909434057
141,25.201502658465154
142,23.926395848207244
143,24.931224519203686
144,24.510083479824769
145,24.927178973751106
146,23.921608700486073
632,-3.6982887961480879
633,99.9908943501283
634,-2.497594306570022
635,93.38135830014872
636,-2.5910993108795505
637,95.14711034658017
2,1, 5, 3, 0, 6,30.00,40.00,Friday
7,19.5
140,25.012821671753778
141,25.148165476978023
142,23.828807849452589
143,24.840942536089533
144,24.423143865878207
145,24.84940532997875
146,23.293127829001084
632,-3.751193567215339
633,99.99420886539781
634,-2.5360453172949359
635,94.15553597423888
636,-2.637516216931038
637,95.88167107533832
2,1, 5, 3, 0, 6,40.00,50.00,Friday
7,19.6
140,24.960033952300493
141,25.10694144101797
142,24.09192796350563
143,24.74906403876218
144,24.354970189463438
145,24.78976154903791
146,22.38438291337725
632,-3.6784555986832609
633,99.98925706974521
634,-2.561833073627153
635,94.63675083737847
636,-2.6714716063794095
637,96.3636460842044
2,1, 5, 3, 0, 6,50.00,60.00,Friday
7,19.5
140,24.91478463260105
141,25.07314949078674
142,23.96898983307282
143,24.663267364359709
144,24.278092099573948
145,24.722073192529594
146,22.934101200490639
632,-3.7240100958917705
633,99.99267737200832
634,-2.5848165962591578
635,95.0406951996272
636,-2.702589665584504
637,96.76648641613792
2,1, 5, 3, 0, 7, 0.00,10.00,Friday
7,19.6
140,24.849896303229774
141,25.025828265318919
142,23.840373056394556
143,24.538408024835147
144,24.195568849191134
145,24.648496950673715
146,23.226379855839548
632,-3.7780071183087426
633,99.99542564239417
634,-2.612730665289391
635,95.50061309089598
636,-2.7393097068987246
637,97.19665895761674
2,1, 5, 3, 0, 7,10.00,20.00,Friday
7,19.9
140,24.82045301535995
141,25.008240452507644
142,24.13878690888356
143,24.450462913080189
144,24.11901903834888
145,24.58143629061993
146,22.429046836575453
632,-3.689998361200556
633,99.99023995793545
634,-2.624637642730111
635,95.6868229041049
636,-2.759118277869428
637,97.40943967012024
2,1, 5, 3, 0, 7,20.00,30.00,Friday
7,19.6
140,24.772146429069175
141,24.97696558330974
142,24.3395205577716
143,24.33844783742052
144,24.04121338084449
145,24.512554945913828
146,22.68622043375854
632,-3.6310548471234576
633,99.98419842709451
634,-2.646785691545876
635,96.0177652549705
636,-2.7916453321804157
637,97.73116434724602
2,1, 5, 3, 0, 7,30.00,40.00,Friday
7,19.4
140,24.730484015564849
141,24.946329707671589
142,24.216700200288096
143,24.256230432494406
144,23.96134472368538
145,24.441263730719848
146,22.18554469769784
632,-3.6831026701915698
633,99.98966317476037
634,-2.665773365848726
635,96.2859132703869
636,-2.820175136653244
637,97.98655466549939
2,1, 5, 3, 0, 7,40.00,50.00,Friday
7,19.5
140,24.684918044532389
141,24.915796101479854
142,23.958503944876413
143,24.14138992328412
144,23.88762292782251
145,24.376415739364167
146,22.16086781873187
632,-3.776831147432221
633,99.99537764984422
634,-2.6803098247001504
635,96.48175491094998
636,-2.843943527433498
637,98.1813389330988
2,1, 5, 3, 0, 7,50.00,60.00,Friday
7,19.8
140,24.673135493788707
141,24.91498771306704
142,23.87874530124836
143,24.050927495131015
144,23.81588441894014
145,24.314871614800269
146,22.970326631934886
632,-3.8088536555671737
633,99.9965318194453
634,-2.6798031980243608
635,96.47506480283485
636,-2.8507361946070137
637,98.23413422479753
2,1, 5, 3, 0, 8, 0.00,10.00,Friday
7,20.1
140,24.670695267802559
141,24.920227847430277
142,23.707277357354227
143,23.974444618889316
144,23.7565714531125
145,24.264037639900005
146,23.50101892882361
632,-3.867921083884644
633,99.99799270688077
634,-2.677012576018832
635,96.4380398592332
636,-2.8530060207018508
637,98.25149892181132
2,1, 5, 3, 0, 8,10.00,20.00,Friday
7,20.1
140,24.659493670632594
141,24.92552118130976
142,23.585750171691829
143,23.831085963892109
144,23.68257360206755
145,24.20001599903182
146,23.287660414078866
632,-3.912772763726354
633,99.99869455702475
634,-2.6742644443969776
635,96.40128953138945
636,-2.858697902093191
637,98.29443938736375
2,1, 5, 3, 0, 8,20.00,30.00,Friday
7,20.7
140,24.682682064039257
141,24.95575973258939
142,23.845672138278219
143,23.77332965848387
144,23.63308868836956
145,24.160778791316923
146,22.68446735985708
632,-3.8233527817075108
633,99.99696124104097
634,-2.654172303658767
635,96.12376396997157
636,-2.8431920381413628
637,98.17542104454324
2,1, 5, 3, 0, 8,30.00,40.00,Friday
7,21.2
140,24.71082730728661
141,24.994270532894313
142,24.13189910728086
143,23.709869204761234
144,23.58446136167468
145,24.120570285038249
146,23.123656455498176
632,-3.723648907154508
633,99.9926547274741
634,-2.6315522045441406
635,95.79227732867359
636,-2.8267074611379536
637,98.04167402760902
2,1, 5, 3, 0, 8,40.00,50.00,Friday
7,22.0
140,24.764082676814568
141,25.07227685840088
142,24.486113509597609
143,23.594954288199689
144,23.531199880072636
145,24.075109724823215
146,23.347275795489027
632,-3.5982255860272458
633,99.97951333733123
634,-2.5943553994480816
635,95.201593350556
636,-2.800800208843935
637,97.81576478687504
2,1, 5, 3, 0, 8,50.00,60.00,Friday
7,22.9
140,24.81728459120913
141,25.151194080002836
142,24.639006194049747
143,23.519326158660353
144,23.49191379433244
145,24.04228621400873
146,23.59113278876301
632,-3.5355649682511838
633,99.96693128427514
634,-2.553183936025037
635,94.4786896576779
636,-2.7734262494633037
637,97.55510168857421
2,1, 5, 3, 0, 9, 0.00,10.00,Friday
7,24.3
140,24.88372834008598
141,25.241344753963096
142,24.732202323834707
143,23.48457215480474
144,23.46533116292106
145,24.02232668476684
146,23.837185905402334
632,-3.4858671090848625
633,99.95238948199676
634,-2.505026177407954
635,93.53637729011617
636,-2.7349841006594226
637,97.14843300912624
2,1, 5, 3, 0, 9,10.00,20.00,Friday
7,24.3
140,24.92858923551848
141,25.309803332949838
142,24.787883393691844
143,23.473308632929127
144,23.436694824717408
145,23.997811235259357
146,23.755634207786668
632,-3.460633837565526
633,99.94300010293115
634,-2.4813599055827577
635,93.03361195493065
636,-2.716472237587693
637,96.93472123902196
2,1, 5, 3, 0, 9,20.00,30.00,Friday
7,24.4
140,24.94946308188199
141,25.3506869291974
142,24.82402152366501
143,23.478801288176379
144,23.417204151824618
145,23.980304950956787
146,23.743891433400749
632,-3.440716890691484
633,99.9344536415409
634,-2.4643591612231288
635,92.65589520544759
636,-2.706176935746328
637,96.81062390872816
2,1, 5, 3, 0, 9,30.00,40.00,Friday
7,24.7
140,24.96658789065149
141,25.37917534307013
142,24.872565319182763
143,23.504725214034449
144,23.41120883189748
145,23.974872369909617
146,23.88843587833133
632,-3.416592867456258
633,99.92258220335168
634,-2.4481432770379087
635,92.28253659936934
636,-2.694559821768394
637,96.66598560320138
2,1, 5, 3, 0, 9,40.00,50.00,Friday
7,25.1
140,24.999971794523704
141,25.414690062898438
142,24.939554620094748
143,23.555585096944197
144,23.41828057073827
145,23.98024049608153
146,24.021077577959866
632,-3.3791365398088475
633,99.90033993150496
634,-2.425353965190214
635,91.7359782706764
636,-2.672215599106625
637,96.37370319713902
2,1, 5, 3, 0, 9,50.00,60.00,Friday
7,25.4
140,25.047824256012804
141,25.458315023428026
142,25.02791956707099
143,23.63273463176471
144,23.43424353380609
145,23.9923739719857
146,23.933503204164574
632,-3.3375281627506729
633,99.8691514471266
634,-2.4009207234244278
635,91.12128620983714
636,-2.6464264292872579
637,96.01255459961408
2,1, 5, 3, 0,10, 0.00,10.00,Friday
7,25.9
140,26.595921782654729
141,27.0216052485698
142,26.529031200430294
143,23.715753297155609
144,23.459989583396135
145,24.013315113452657
146,24.25180689284445
632,-0.20674615426863328
633,5.886479441574025
634,0.3873766193484619
635,8.125488376709385
636,0.2425481420118988
637,6.220913119675259
2,1, 5, 3, 0,10,10.00,20.00,Friday
7,26.2
140,26.943607283031424
141,27.329141945484364
142,26.85009656973842
143,23.82211716398798
144,23.491322734433078
145,24.03795957675431
146,24.378479596488576
632,-0.11499555641286119
633,5.273904368391825
634,0.4775334140818678
635,9.762618600568559
636,0.34055983023596339
637,7.412550281728471
2,1, 5, 3, 0,10,20.00,30.00,Friday
7,26.3
140,27.17574075609465
141,27.549067031424273
142,27.049956002051787
143,23.944586828053838
144,23.53609975453447
145,24.066859775193195
146,24.354708994561756
632,-0.06608836816520437
633,5.090430700263042
634,0.5286496165528131
635,10.846333552572049
636,0.395609123420397
637,8.26052064282571
2,1, 5, 3, 0,10,30.00,40.00,Friday
7,26.4
140,27.615095855763458
141,27.966172182885069
142,27.403457064663209
143,24.16747008517045
144,23.598996331009006
145,24.10957174137384
146,24.309403831069078
632,0.0218307281715806
633,5.009865669804768
634,0.6299202579806223
635,13.327644582414152
636,0.5021745777569091
637,10.270938654024946
2,1, 5, 3, 0,10,40.00,50.00,Friday
7,26.4
140,27.79013104664983
141,28.12601717991411
142,27.520120614017455
143,24.361209363999956
144,23.6674492839573
145,24.154034636706329
146,24.29773616718439
632,0.0651614319422142
633,5.087911302388704
634,0.6847960436591589
635,14.858033402117656
636,0.5611636483018035
637,11.594501288946973
2,1, 5, 3, 0,10,50.00,60.00,Friday
7,25.9
140,27.781768613433106
141,28.106835891441084
142,27.470809534350346
143,24.53704926280809
144,23.73928424343626
145,24.205977280370406
146,24.15478909644899
632,0.06682994121958345
633,5.092471927088738
634,0.6992577117331031
635,15.283045372268163
636,0.5789425540081438
637,12.02298851509066
2,1, 5, 3, 0,11, 0.00,10.00,Friday
7,26.2
140,27.78296465646635
141,28.096396081027526
142,27.476667210357804
143,24.720207846817396
144,23.827999166205978
145,24.274600337161126
146,24.118018393435084
632,0.07751464161834457
633,5.1244128225679479
634,0.7193213795747334
635,15.887643211693529
636,0.6027356342299125
637,12.617881797273754
2,1, 5, 3, 0,11,10.00,20.00,Friday
7,26.9
140,27.862083765583507
141,28.165320212407566
142,27.640466842348489
143,24.871873736631878
144,23.93014575676044
145,24.355770146137507
146,24.736264982351555
632,0.12603105397458398
633,5.329035670569752
634,0.7493153383778853
635,16.82378696152047
636,0.6365266991645604
637,13.504975325269954
2,1, 5, 3, 0,11,20.00,30.00,Friday
7,27.2
140,27.922309063598207
141,28.21482286869581
142,27.771243201474186
143,25.03582498616948
144,24.021423090668134
145,24.426410833726544
146,25.011257660797378
632,0.1673292703088972
633,5.580312517935127
634,0.7723016980170581
635,17.567310593910365
636,0.663342824316587
637,14.244208818184163
2,1, 5, 3, 0,11,30.00,40.00,Friday
7,27.3
140,28.00273580613277
141,28.277828381408044
142,27.90712301139935
143,25.27923112877003
144,24.137799782243439
145,24.517630046004439
146,25.235629793889708
632,0.21014804310094
633,5.915947839150789
634,0.8012724383509802
635,18.53646949969925
636,0.6975564695413041
637,15.232578898803198
2,1, 5, 3, 0,11,40.00,50.00,Friday
7,27.4
140,28.058929962895144
141,28.320392889069355
142,27.956502050036009
143,25.457937140239289
144,24.25514442821818
145,24.609698043348119
146,24.855081377492298
632,0.22889557993550425
633,6.0870419714947989
634,0.8221867767226808
635,19.258198285867864
636,0.7233757267569678
637,16.011923576784726
2,1, 5, 3, 0,11,50.00,60.00,Friday
7,27.6
140,28.158278463411066
141,28.39651305144028
142,28.08380952755474
143,25.739014921057448
144,24.387689840216294
145,24.715364676939676
146,25.247583671020345
632,0.2647457038696194
633,6.455290656249019
634,0.8597872661578332
635,20.601876906264424
636,0.7675453607772117
637,17.41160878842183
2,1, 5, 3, 0,12, 0.00,10.00,Friday
7,28.5
140,28.246280896374637
141,28.468076710148
142,28.27861477704078
143,25.936994712810276
144,24.530913752551464
145,24.83240064590632
146,25.566073792838666
632,0.32226395473988858
633,7.1592695386679
634,0.9019141395327638
635,22.17680317611486
636,0.8150674209454032
637,19.01044808118587
2,1, 5, 3, 0,12,10.00,20.00,Friday
7,28.0
140,28.305875396349113
141,28.511444669778645
142,28.36625829669746
143,26.13654293460742
144,24.657381433693837
145,24.932198209633677
146,25.664468347175345
632,0.3493807609765192
633,7.539742602009909
634,0.9263242775719672
635,23.12244237762583
636,0.8446633581676984
637,20.054323805564068
2,1, 5, 3, 0,12,20.00,30.00,Friday
7,29.1
140,28.369740491737539
141,28.56289808482264
142,28.51224812015993
143,26.29887085731358
144,24.813086257943448
145,25.06021390545294
146,26.014215360277555
632,0.4004263756492656
633,8.340878705844915
634,0.9559597113174101
635,24.302522488570987
636,0.879345932728957
637,21.32402741993816
2,1, 5, 3, 0,12,30.00,40.00,Friday
7,29.2
140,28.45351640293091
141,28.627266551268336
142,28.653786199912405
143,26.5205520443361
144,24.973627401476305
145,25.18442274423091
146,26.191693251770809
632,0.44081171591956455
633,9.05366349438782
634,0.9825872677713228
635,25.39224960153912
636,0.9121536135625149
637,22.57055044509019
2,1, 5, 3, 0,12,40.00,50.00,Friday
7,29.9
140,28.519000500449694
141,28.67771017018071
142,28.755141909180148
143,26.69542431589892
144,25.136200404779659
145,25.313434202156438
146,26.710244496487137
632,0.4800900058948187
633,9.814139753796724
634,1.0099877453300903
635,26.54207917653018
636,0.9449274089364538
637,23.859151763888336
2,1, 5, 3, 0,12,50.00,60.00,Friday
7,30.5
140,28.6343371884375
141,28.76717980569466
142,28.940579956237749
143,26.955033615549895
144,25.351180373561808
145,25.472487486514717
146,27.000246900311553
632,0.5367336909375153
633,11.028074397307279
634,1.0533745182000394
635,28.420184424015006
636,0.9958549163563938
637,25.945443860694128
2,1, 5, 3, 0,13, 0.00,10.00,Friday
7,31.4
140,28.70055400334361
141,28.820042760934247
142,29.113062293597236
143,27.091104984343855
144,25.53008438910406
145,25.63103746483859
146,27.695086245189758
632,0.5927733181856033
633,12.365806298091855
634,1.0838188358936905
635,29.778682142946466
636,1.031683842333791
637,27.472584412456486
2,1, 5, 3, 0,13,10.00,20.00,Friday
7,30.8
140,28.749122618283569
141,28.852883588600937
142,29.17761411822675
143,27.24729238278165
144,25.682125921353376
145,25.752261573843243
146,27.125002093930524
632,0.6154409514722959
633,12.945612917662644
634,1.0970198016107283
635,30.37782109637685
636,1.0507938889325015
637,28.30654900288242
2,1, 5, 3, 0,13,20.00,30.00,Friday
7,30.6
140,28.845002410585705
141,28.919407860793659
142,29.227634232083177
143,27.498652646028483
144,25.89163684586705
145,25.925509084445939
146,27.554532617159887
632,0.6389868414425263
633,13.571494481629486
634,1.1250837278716628
635,31.67118369371198
636,1.0893585269664564
637,30.029374865703646
2,1, 5, 3, 0,13,30.00,40.00,Friday
7,30.8
140,28.925520304272184
141,28.975643017493775
142,29.295984387673458
143,27.689758278175156
144,26.077683215871166
145,26.081706431072708
146,27.68221866567383
632,0.6700086351240269
633,14.43279923861428
634,1.147610986671555
635,32.72815394348078
636,1.1303969637960978
637,31.91899683459961
2,1, 5, 3, 0,13,40.00,50.00,Friday
7,30.9
140,28.972493844571038
141,29.009195854616615
142,29.39616306737699
143,27.80696626746303
144,26.245838049819999
145,26.225950003729176
146,27.039627255255327
632,0.6997635241494874
633,15.298074136808737
634,1.1643721605694449
635,33.525061577040677
636,1.1533719349196936
637,33.001064283728229
2,1, 5, 3, 0,13,50.00,60.00,Friday
7,31.5
140,29.010449660282484
141,29.0296192197137
142,29.524326436890627
143,27.93487357305864
144,26.39574967170229
145,26.351895004805749
146,27.51287808472322
632,0.7305051557544977
633,16.23218163133373
634,1.1724114612140376
635,33.9103799569787
636,1.1695662190083454
637,33.77378316338205
2,1, 5, 3, 0,14, 0.00,10.00,Friday
7,31.8
140,29.076320722783416
141,29.072802388957247
142,29.443058803178148
143,28.09528371225787
144,26.57663174764528
145,26.506620504547109
146,28.39828242253727
632,0.7365837922164266
633,16.421701934791174
634,1.1913845175657505
635,34.82748829637397
636,1.1973108619272144
637,35.11613622895247
2,1, 5, 3, 0,14,10.00,20.00,Friday
7,32.0
140,29.21310706781028
141,29.179303396098786
142,29.753140274552665
143,28.278219846162718
144,26.78001920421935
145,26.683501168469399
146,27.59570493887736
632,0.8224296421964291
633,19.266687485030674
634,1.2389238194142765
635,37.17092712446179
636,1.2557526994513
637,38.015185748048789
2,1, 5, 3, 0,14,20.00,30.00,Friday
7,31.8
140,29.273861225413584
141,29.224872256485044
142,29.736325428024249
143,28.379887211181335
144,26.90843756289221
145,26.79718624107211
146,28.449735104002867