Program Version,EnergyPlus, Version 9.5.0-de239b2e5f, YMD=2021.12.09 21:56
1,5,Environment Title[],Latitude[deg],Longitude[deg],Time Zone[],Elevation[m]
2,8,Day of Simulation[],Month[],Day of Month[],DST Indicator[1=yes 0=no],Hour[],StartMinute[],EndMinute[],DayType
3,5,Cumulative Day of Simulation[],Month[],Day of Month[],DST Indicator[1=yes 0=no],DayType  ! When Daily Report Variables Requested
4,2,Cumulative Days of Simulation[],Month[]  ! When Monthly Report Variables Requested
5,1,Cumulative Days of Simulation[] ! When Run Period Report Variables Requested
6,1,Calendar Year of Simulation[] ! When Annual Report Variables Requested
7,1,Environment,Site Outdoor Air Drybulb Temperature [C] !TimeStep
140,1,TZCUB5,Zone Mean Air Temperature [C] !TimeStep
141,1,TZCUB6,Zone Mean Air Temperature [C] !TimeStep
142,1,TZCUB7,Zone Mean Air Temperature [C] !TimeStep
143,1,TZLABORATORIOS,Zone Mean Air Temperature [C] !TimeStep
144,1,TZTECHOCUB5,Zone Mean Air Temperature [C] !TimeStep
145,1,TZTECHOCUB6,Zone Mean Air Temperature [C] !TimeStep
146,1,TZTECHOCUB7,Zone Mean Air Temperature [C] !TimeStep
End of Data Dictionary
1,RUN PERIOD 1,  18.51, -99.14,  -6.00,1219.00
2,1, 5, 3, 0, 1, 0.00,10.00,Friday
7,23.0
140,26.793150585248275
141,26.46203322296226
142,26.576732029677964
143,28.093372267806996
144,26.903416010708758
145,26.95395398062968
146,26.00623421765131
2,1, 5, 3, 0, 1,10.00,20.00,Friday
7,23.0
140,26.723648004113259
141,26.40415670285885
142,26.52361053459812
143,28.020897993040657
144,26.857384949878417
145,26.919420732643667
146,25.62629043884877
2,1, 5, 3, 0, 1,20.00,30.00,Friday
7,23.0
140,26.5950560119337
141,26.30060711656069
142,26.441625205343507
143,27.892169648062578
144,26.78138968453039
145,26.853773250419818
146,25.31969669863739
2,1, 5, 3, 0, 1,30.00,40.00,Friday
7,22.8
140,26.50159466212126
141,26.228544531743663
142,26.357996717907086
143,27.786896409605999
144,26.71279380340135
145,26.796527216695738
146,25.539965604085343
2,1, 5, 3, 0, 1,40.00,50.00,Friday
7,22.7
140,26.48887538134241
141,26.222944196157625
142,26.32317487110455
143,27.732551847460326
144,26.65142308085738
145,26.748982397876163
146,25.113053781651588
2,1, 5, 3, 0, 1,50.00,60.00,Friday
7,22.6
140,26.420030416543356
141,26.17572141593785
142,26.226955183071966
143,27.61246120938317
144,26.572391030834866
145,26.680821050351928
146,25.562931055993674
2,1, 5, 3, 0, 2, 0.00,10.00,Friday
7,22.5
140,26.360538147407508
141,26.134628633903284
142,26.1988554974524
143,27.514896044531868
144,26.501462087780959
145,26.62314303994803
146,25.06801715489453
2,1, 5, 3, 0, 2,10.00,20.00,Friday
7,22.4
140,26.30890525161279
141,26.099651495241763
142,26.181650703425967
143,27.41939613373457
144,26.428160967702099
145,26.56334651473201
146,25.214178150181526
2,1, 5, 3, 0, 2,20.00,30.00,Friday
7,22.3
140,26.259748225660038
141,26.067082956324698
142,26.161891890553585
143,27.316950079214604
144,26.349708191374324
145,26.49871859698962
146,25.06795114134312
2,1, 5, 3, 0, 2,30.00,40.00,Friday
7,22.4
140,26.215458899272084
141,26.039764129443804
142,26.130117829743186
143,27.213238434298949
144,26.275152916769238
145,26.43758614790895
146,24.999479212918979
2,1, 5, 3, 0, 2,40.00,50.00,Friday
7,22.5
140,26.17608205879639
141,26.017400409162425
142,26.07176674176978
143,27.111103606163736
144,26.201642067401303
145,26.377845568907224
146,25.259018056032457
2,1, 5, 3, 0, 2,50.00,60.00,Friday
7,22.3
140,26.13171401529308
141,25.989696348992046
142,26.010253710859243
143,27.009706808308065
144,26.12452334947615
145,26.31481202280707
146,25.04259655086996
2,1, 5, 3, 0, 3, 0.00,10.00,Friday
7,22.1
140,26.101047836899356
141,25.96740542072446
142,26.003641791248137
143,26.941921900480098
144,26.05464441015025
145,26.259632064335198
146,24.665104550707956
2,1, 5, 3, 0, 3,10.00,20.00,Friday
7,22.0
140,26.04734849824065
141,25.928496801378338
142,25.94191473481023
143,26.835091092124473
144,25.975525564214668
145,26.194373857512617
146,24.71870758312972
2,1, 5, 3, 0, 3,20.00,30.00,Friday
7,22.0
140,25.9863926012443
141,25.885874349666314
142,25.89232459706757
143,26.71059387943543
144,25.893371926905439
145,26.126870375803248
146,24.45382612870371
2,1, 5, 3, 0, 3,30.00,40.00,Friday
7,21.9
140,25.93135086498961
141,25.848067502430788
142,25.823737722934767
143,26.598597754086723
144,25.817497828796584
145,26.065157091128083
146,24.31869869872517
2,1, 5, 3, 0, 3,40.00,50.00,Friday
7,21.9
140,25.904403626290767
141,25.82861014195214
142,25.752504925152498
143,26.52587602665372
144,25.745193175488536
145,26.006425650917753
146,25.024890681384528
2,1, 5, 3, 0, 3,50.00,60.00,Friday
7,21.7
140,25.873101011935839
141,25.80344564594695
142,25.706979606371847
143,26.449255727566969
144,25.67603387459052
145,25.950081776643477
146,24.602627973513394
2,1, 5, 3, 0, 4, 0.00,10.00,Friday
7,21.7
140,25.803187026594068
141,25.750193345706614
142,25.55702458796552
143,26.307638825998283
144,25.588226609886477
145,25.874151843180657
146,25.304041242746164
2,1, 5, 3, 0, 4,10.00,20.00,Friday
7,21.8
140,25.74598601829005
141,25.709270504428845
142,25.448391606849197
143,26.190492128865434
144,25.513255735601338
145,25.81221094597512
146,25.160686021632384
2,1, 5, 3, 0, 4,20.00,30.00,Friday
7,21.5
140,25.720737227628555
141,25.68964470126444
142,25.424821713022653
143,26.133561822963779
144,25.44105860556018
145,25.751342900528344
146,24.923640061051694
2,1, 5, 3, 0, 4,30.00,40.00,Friday
7,21.4
140,25.67097368530318
141,25.651627314983693
142,25.367415781232926
143,26.03305935399327
144,25.36301048462171
145,25.68332082437835
146,24.893120114959399
2,1, 5, 3, 0, 4,40.00,50.00,Friday
7,21.1
140,25.62133635124705
141,25.612980336292439
142,25.302381612764415
143,25.943598563436763
144,25.28480193469754
145,25.61456031222682
146,24.497558818706524
2,1, 5, 3, 0, 4,50.00,60.00,Friday
7,21.2
140,25.537409129421527
141,25.550142891826618
142,25.193717571620569
143,25.800359388184579
144,25.20590060651057
145,25.54479984285397
146,24.902285873339669
2,1, 5, 3, 0, 5, 0.00,10.00,Friday
7,21.0
140,25.467473537261527
141,25.49786317448977
142,25.09905755890895
143,25.68696230069368
144,25.126649830909554
145,25.475059691555978
146,24.85214300894369
2,1, 5, 3, 0, 5,10.00,20.00,Friday
7,20.8
140,25.437803907000366
141,25.475987499826098
142,25.12997661664457
143,25.619587054568766
144,25.051510048425773
145,25.409888587903628
146,23.872010565463783
2,1, 5, 3, 0, 5,20.00,30.00,Friday
7,20.9
140,25.397795005748998
141,25.448205916693956
142,25.138847133222119
143,25.523648197768414
144,24.9774726813155
145,25.34456479024013
146,24.105068911426927
2,1, 5, 3, 0, 5,30.00,40.00,Friday
7,20.8
140,25.340266458799176
141,25.40724056483348
142,25.08452210376452
143,25.404888348591645
144,24.89424832733798
145,25.270128571030648
146,24.21083161825831
2,1, 5, 3, 0, 5,40.00,50.00,Friday
7,21.1
140,25.322944251276366
141,25.399232006920174
142,25.101747141271696
143,25.33479988595195
144,24.8303734066004
145,25.215872195221395
146,23.806111745695099
2,1, 5, 3, 0, 5,50.00,60.00,Friday
7,20.8
140,25.27739290916587
141,25.369238792655236
142,25.106604482557477
143,25.227757036389183
144,24.750127983259568
145,25.14439197286441
146,23.595659197169103
2,1, 5, 3, 0, 6, 0.00,10.00,Friday
7,20.8
140,25.214733181971764
141,25.32544101984519
142,25.074367201779958
143,25.10229592548005
144,24.66620263526904
145,25.06976123558046
146,23.818945842396674
2,1, 5, 3, 0, 6,10.00,20.00,Friday
7,20.1
140,25.125967244317715
141,25.253065323927325
142,24.927049742656537
143,24.98998258317003
144,24.579356987991415
145,24.990517445349238
146,23.697012281502599
2,1, 5, 3, 0, 6,20.00,30.00,Friday
7,20.1
140,25.045914093656824
141,25.18613746469286
142,24.772921706046966
143,24.892034098348387
144,24.503663202367937
145,24.923558117037126
146,23.91353243037589
2,1, 5, 3, 0, 6,30.00,40.00,Friday
7,19.5
140,24.99579260503594
141,25.143482530540714
142,24.7103219976959
143,24.82480813626913
144,24.42444451682121
145,24.853053102677295
146,23.308335926201374
2,1, 5, 3, 0, 6,40.00,50.00,Friday
7,19.6
140,24.948928671488806
141,25.10690386672427
142,24.76371029885683
143,24.739392999472778
144,24.3547126475629
145,24.792046128790586
146,22.397879937000668
2,1, 5, 3, 0, 6,50.00,60.00,Friday
7,19.5
140,24.90666011048188
141,25.075555942816103
142,24.70655626220381
143,24.656414321118097
144,24.27853515721457
145,24.72501994380184
146,22.94949394041499
2,1, 5, 3, 0, 7, 0.00,10.00,Friday
7,19.6
140,24.84592666423407
141,25.031724831972054
142,24.630767481624209
143,24.535321828731996
144,24.19618795066665
145,24.65165837708011
146,23.242779847725907
2,1, 5, 3, 0, 7,10.00,20.00,Friday
7,19.9
140,24.818078862413118
141,25.015543188615426
142,24.69989397140516
143,24.448627810019955
144,24.119483604244203
145,24.58446951547833
146,22.445561305684384
2,1, 5, 3, 0, 7,20.00,30.00,Friday
7,19.6
140,24.77113141699036
141,24.98564661498517
142,24.733339472979489
143,24.33736822248454
144,24.041659492977499
145,24.515592341587014
146,22.704016058525477
2,1, 5, 3, 0, 7,30.00,40.00,Friday
7,19.4
140,24.729963350926718
141,24.955602476845529
142,24.669054471279297
143,24.255423222614117
144,23.96180456368561
145,24.44433656960387
146,22.202625403258709
2,1, 5, 3, 0, 7,40.00,50.00,Friday
7,19.5
140,24.684934202256483
141,24.92585390529897
142,24.55856329557042
143,24.140837074584569
144,23.888071423848645
145,24.379504038328134
146,22.17847735399657
2,1, 5, 3, 0, 7,50.00,60.00,Friday
7,19.8
140,24.673420479824548
141,24.92549735246748
142,24.522656687227163
143,24.050491514564859
144,23.816322180599835
145,24.317971195533887
146,22.988994140353083
2,1, 5, 3, 0, 8, 0.00,10.00,Friday
7,20.1
140,24.67108681071205
141,24.930987125385707
142,24.45940293586998
143,23.974046336845296
144,23.757004291717018
145,24.26715029141144
146,23.560815401220589
2,1, 5, 3, 0, 8,10.00,20.00,Friday
7,20.1
140,24.660139348782179
141,24.936866713507553
142,24.394178261338995
143,23.830777829031168
144,23.683001730431259
145,24.20316074596632
146,23.313132703476108
2,1, 5, 3, 0, 8,20.00,30.00,Friday
7,20.7
140,24.68335064024168
141,24.967280099939019
142,24.483240314984159
143,23.77302945498363
144,23.633513733066587
145,24.163945928311919
146,22.709185656412477
2,1, 5, 3, 0, 8,30.00,40.00,Friday
7,21.2
140,24.711519503620047
141,25.00595050907478
142,24.57947419798292
143,23.70958010179134
144,23.584883856663944
145,24.123762007149236
146,23.146574803057314
2,1, 5, 3, 0, 8,40.00,50.00,Friday
7,22.0
140,24.76483944241611
141,25.08417677594297
142,24.708937114943156
143,23.594691985817705
144,23.531620099382225
145,24.078336653852973
146,23.36965311301288
2,1, 5, 3, 0, 8,50.00,60.00,Friday
7,22.9
140,24.818078244387317
141,25.16302719688762
142,24.787350513327657
143,23.519080658617886
144,23.492332075422629
145,24.045542542302444
146,23.615618010027018
2,1, 5, 3, 0, 9, 0.00,10.00,Friday
7,24.3
140,24.884529265317306
141,25.252748751564945
142,24.860493009936957
143,23.484334408847955
144,23.46574808312766
145,24.025616336003379
146,23.862812306744087
2,1, 5, 3, 0, 9,10.00,20.00,Friday
7,24.3
140,24.929385137774145
141,25.31971492779927
142,24.910696610135834
143,23.47307651815087
144,23.437110940964844
145,24.00113624001204
146,23.779921289484329
2,1, 5, 3, 0, 9,20.00,30.00,Friday
7,24.4
140,24.9502585943958
141,25.3605185129963
142,24.940252041570554
143,23.478575824489547
144,23.417619915109346
145,23.9836724477803
146,23.769830312072256
2,1, 5, 3, 0, 9,30.00,40.00,Friday
7,24.7
140,24.967394867771885
141,25.389831702593189
142,24.969344227829958
143,23.504506888437814
144,23.411624108402746
145,23.978274166339089
146,23.91176188504064
2,1, 5, 3, 0, 9,40.00,50.00,Friday
7,25.1
140,25.000797943202735
141,25.42614680540754
142,25.010977509686396
143,23.555373365557544
144,23.418695514605959
145,23.983670812408165
146,24.041828914954797
2,1, 5, 3, 0, 9,50.00,60.00,Friday
7,25.4
140,25.048670949182588
141,25.470243086253693
142,25.064453986837319
143,23.63252877458929
144,23.43465867264049
145,23.995837701946376
146,23.95406002682216
2,1, 5, 3, 0,10, 0.00,10.00,Friday
7,25.9
140,26.596233868743665
141,27.037298754540573
142,26.58906922504646
143,23.715551435995978
144,23.460406739828863
145,24.01681683472225
146,24.27037430494038
2,1, 5, 3, 0,10,10.00,20.00,Friday
7,26.2
140,26.944387731951389
141,27.343364003073416
142,26.92687726326552
143,23.821919667796853
144,23.49172814251319
145,24.041503225481426
146,24.395522411933578
2,1, 5, 3, 0,10,20.00,30.00,Friday
7,26.3
140,27.176572270418313
141,27.56340856362501
142,27.14767439032449
143,23.9443931931922
144,23.5365020092127
145,24.07045597492742
146,24.371911599265386
2,1, 5, 3, 0,10,30.00,40.00,Friday
7,26.4
140,27.6160252095887
141,27.98072147822093
142,27.5583304338619
143,24.167283017024425
144,23.599394101106289
145,24.1132405128862
146,24.32661038101122
2,1, 5, 3, 0,10,40.00,50.00,Friday
7,26.4
140,27.79110399220816
141,28.14060853805241
142,27.715587723700606
143,24.361027150748219
144,23.66784354123369
145,24.157633996934828
146,24.31489693218132
2,1, 5, 3, 0,10,50.00,60.00,Friday
7,25.9
140,27.78274476321267
141,28.121354861342508
142,27.700687473084323
143,24.5368706869873
144,23.73967628857308
145,24.209563181379708
146,24.19070837009051
2,1, 5, 3, 0,11, 0.00,10.00,Friday
7,26.2
140,27.78394198538884
141,28.110833184178149
142,27.709383436305694
143,24.720032786424846
144,23.82838856160268
145,24.278205506006516
146,24.184328064067718
2,1, 5, 3, 0,11,10.00,20.00,Friday
7,26.9
140,27.863075194005739
141,28.179750776877325
142,27.815656266989554
143,24.871701574413444
144,23.93053232256399
145,24.35937533260445
146,24.74915407541361
2,1, 5, 3, 0,11,20.00,30.00,Friday
7,27.2
140,27.9233146648249
141,28.229255379311334
142,27.903668198272123
143,25.035655802310715
144,24.021807769794678
145,24.4300232267625
146,25.020997840788796
2,1, 5, 3, 0,11,30.00,40.00,Friday
7,27.3
140,28.00376041605523
141,28.292235698409038
142,28.013104293142289
143,25.279066236128754
144,24.13818089287911
145,24.521239403302727
146,25.252911436934295
2,1, 5, 3, 0,11,40.00,50.00,Friday
7,27.4
140,28.05996496997871
141,28.334743413329116
142,28.077084523013274
143,25.45777526541101
144,24.2555221537468
145,24.613302258336718
146,24.86361152762933
2,1, 5, 3, 0,11,50.00,60.00,Friday
7,27.6
140,28.15933425060719
141,28.41080241080107
142,28.203013215733365
143,25.73885768138227
144,24.388061324092655
145,24.718935214538523
146,25.2559383489482
2,1, 5, 3, 0,12, 0.00,10.00,Friday
7,28.5
140,28.247354139736716
141,28.482364094874776
142,28.3353558618372
143,25.93684056496309
144,24.531279151247799
145,24.83593467153445
146,25.57724907258224
2,1, 5, 3, 0,12,10.00,20.00,Friday
7,28.0
140,28.30696312379079
141,28.525706199857006
142,28.4224121023595
143,26.136391848022958
144,24.657739128852538
145,24.935616066238248
146,25.677131986857078
2,1, 5, 3, 0,12,20.00,30.00,Friday
7,29.1
140,28.370841219105527
141,28.577159273079049
142,28.520183112532707
143,26.29872225970434
144,24.813431894069234
145,25.063708932341485
146,26.027163160655097
2,1, 5, 3, 0,12,30.00,40.00,Friday
7,29.2
140,28.45463456227985
141,28.64157328469089
142,28.639753800937425
143,26.52040681118088
144,24.973969090446798
145,25.18785015001514
146,26.20497505824759
2,1, 5, 3, 0,12,40.00,50.00,Friday
7,29.9
140,28.520133320861694
141,28.69197650684434
142,28.729952120123273
143,26.695281732704776
144,25.13653377389374
145,25.316780532427854
146,26.72355723562923
2,1, 5, 3, 0,12,50.00,60.00,Friday
7,30.5
140,28.635498095728317
141,28.781388959782026
142,28.888893102650138
143,26.954894952099808
144,25.35150534110185
145,25.475469870679267
146,27.01352160675968
2,1, 5, 3, 0,13, 0.00,10.00,Friday
7,31.4
140,28.701713145151439
141,28.834122895613427
142,28.990603605980028
143,27.090968415652158
144,25.530420039032479
145,25.63402573279525
146,27.70817959870317
2,1, 5, 3, 0,13,10.00,20.00,Friday
7,30.8
140,28.750294343593518
141,28.866929034185959
142,29.056193174824768
143,27.247158217569344
144,25.682468606791205
145,25.755300269442686
146,27.138045597552119
2,1, 5, 3, 0,13,20.00,30.00,Friday
7,30.6
140,28.84619859979318
141,28.933364841735945
142,29.15992509719116
143,27.498522329177498
144,25.891990600935146
145,25.9286854148415
146,27.567569438757567
2,1, 5, 3, 0,13,30.00,40.00,Friday
7,30.8
140,28.926735573711637
141,28.989505118377534
142,29.250645472085293
143,27.689630925266234
144,26.078044652405106
145,26.0849752404235
146,27.695189882307358
2,1, 5, 3, 0,13,40.00,50.00,Friday
7,30.9
140,28.973714646086763
141,29.022991068631293
142,29.315143429388365
143,27.806840824927109
144,26.246205366936065
145,26.229271273433647
146,27.04967452024224
2,1, 5, 3, 0,13,50.00,60.00,Friday
7,31.5
140,29.01167631410321
141,29.043252381147526
142,29.382654769282448
143,27.934750242136717
144,26.39612301223518
145,26.35527223052859
146,27.52390623122345
2,1, 5, 3, 0,14, 0.00,10.00,Friday
7,31.8
140,29.07756072266406
141,29.0862924002073
142,29.41731086012125
143,28.09516307051043
144,26.577014569205475
145,26.51007356006862
146,28.41058559404494
2,1, 5, 3, 0,14,10.00,20.00,Friday
7,32.0
140,29.21435709474915
141,29.192508080247138
142,29.596636251382657
143,28.278102329397738
144,26.780408980250635
145,26.687012463819135
146,27.604148639794084
2,1, 5, 3, 0,14,20.00,30.00,Friday
7,31.8
140,29.2751213682443
141,29.237984436948094
142,29.63391343686046
143,28.37977157639469
144,26.90883784941591
145,26.80075011184777
146,28.461710220222238
2,1, 5, 3, 0,14,30.00,40.00,Friday
7,31.6
140,29.349921561907519
141,29.293488870992449
142,29.715503522899938
143,28.490889365768184
144,27.05010688740606
145,26.93160863355818
146,27.844913478932005
2,1, 5, 3, 0,14,40.00,50.00,Friday
7,32.8
140,29.4788312883854
141,29.396098769545199
142,29.86096558141963
143,28.630628952713164
144,27.240361260706125
145,27.105674060943654
146,29.18077074938421
2,1, 5, 3, 0,14,50.00,60.00,Friday
7,33.5
140,29.631393847808675
141,29.515103200776737
142,30.000223118161498
143,28.782930935915134
144,27.426411778569944
145,27.268188057015327
146,29.46620636494364
2,1, 5, 3, 0,15, 0.00,10.00,Friday
7,31.8
140,29.639856886307777
141,29.493101634994575
142,29.981472960433995
143,28.90305674932102
144,27.500264963211895
145,27.348962166250744
146,28.524244320458416
2,1, 5, 3, 0,15,10.00,20.00,Friday
7,32.4
140,29.710502745258454
141,29.539039992731405
142,30.054057101538754
143,29.010082027220304
144,27.657924609426425
145,27.493847189245835
146,29.083234763602769
2,1, 5, 3, 0,15,20.00,30.00,Friday
7,32.8
140,29.858324782421496
141,29.647247024541707
142,30.190883070498168
143,29.1717988742687
144,27.850933802282055
145,27.660589813157619
146,29.119557858236637
2,1, 5, 3, 0,15,30.00,40.00,Friday
7,33.7
140,29.97743121692708
141,29.737155128135627
142,30.305020393405074
143,29.291714391251575
144,28.004420928821255
145,27.800695306671178
146,28.7928398173584
2,1, 5, 3, 0,15,40.00,50.00,Friday
7,32.9
140,30.049632181485653
141,29.773882674236746
142,30.32819436115217
143,29.425396088002875
144,28.113207146751088
145,27.89744046193406
146,29.598199399546986
2,1, 5, 3, 0,15,50.00,60.00,Friday
7,33.3
140,30.151184025916299
141,29.84226044850753
142,30.408159171804664
143,29.551641612923868
144,28.269369006748425
145,28.036123990567064
146,29.243370982499124
2,1, 5, 3, 0,16, 0.00,10.00,Friday
7,33.9
140,30.303955027617865
141,29.954273033271258
142,30.58948416654926
143,29.702398929451463
144,28.452747237807018
145,28.197884414605839
146,30.935230020546859
2,1, 5, 3, 0,16,10.00,20.00,Friday
7,33.6
140,30.432124305953459
141,30.03058254644877
142,30.692651698572957
143,29.87453274204282
144,28.597733502823855
145,28.321861754940718
146,30.747575791607408
2,1, 5, 3, 0,16,20.00,30.00,Friday
7,32.9
140,30.482416892805298
141,30.042531497633239
142,30.634793307190404
143,29.997448765753768
144,28.71940477302682
145,28.425885782545888
146,29.34599770889342
2,1, 5, 3, 0,16,30.00,40.00,Friday
7,33.3
140,30.54480536309709
141,30.07355836039236
142,30.674981095534599
143,30.122968193671487
144,28.845549199857108
145,28.538031690639316
146,29.452815112931817
2,1, 5, 3, 0,16,40.00,50.00,Friday
7,33.5
140,30.609950300023674
141,30.095167279281534
142,30.78095009768376
143,30.303068079359219
144,28.981792574465346
145,28.652374710165053
146,30.7473863288268
2,1, 5, 3, 0,16,50.00,60.00,Friday
7,32.9
140,30.638002524176537
141,30.07186556076201
142,30.83313142620217
143,30.5114565964317
144,29.081183513282917
145,28.73030897174726
146,30.908331073171465
2,1, 5, 3, 0,17, 0.00,10.00,Friday
7,32.6
140,30.653864806217098
141,30.062753490490907
142,30.956395313839559
143,30.65886113205595
144,29.187255509136685
145,28.809862092885333
146,31.543407169844927
2,1, 5, 3, 0,17,10.00,20.00,Friday
7,30.9
140,30.644920612859868
141,30.02034674044803
142,30.74310719319004
143,30.811607488768865
144,29.22038452380361
145,28.817793052114128
146,30.477384726202304
2,1, 5, 3, 0,17,20.00,30.00,Friday
7,29.4
140,30.61064820263046
141,29.944472342273757
142,30.41281193340333
143,31.014479685449947
144,29.273984064102714
145,28.855442750377138
146,29.370090648902435
2,1, 5, 3, 0,17,30.00,40.00,Friday
7,29.0
140,30.606793765954884
141,29.921666760145447
142,30.3952874829984
143,31.099468518711029
144,29.306797903816365
145,28.88123084905113
146,29.06979197188987
2,1, 5, 3, 0,17,40.00,50.00,Friday
7,28.4
140,30.59939606314293
141,29.883804213605985
142,30.401866318036494
143,31.219253903102364
144,29.322822415528269
145,28.89182940837714
146,29.073720104249849
2,1, 5, 3, 0,17,50.00,60.00,Friday
7,29.2
140,30.64569680630054
141,29.89708649247702
142,30.433977359652589
143,31.33578129756346
144,29.344172505001344
145,28.91239486438457
146,29.249495964052977
2,1, 5, 3, 0,18, 0.00,10.00,Friday
7,28.0
140,30.6583714832089
141,29.897881470527616
142,30.347935725760999
143,31.370439680042954
144,29.31937986759874
145,28.892183288002899
146,28.454532375899789
2,1, 5, 3, 0,18,10.00,20.00,Friday
7,26.8
140,30.650799139125775
141,29.88013648007012
142,30.29682427092267
143,31.391959178333925
144,29.28898701465264
145,28.865344009852828
146,28.031476891279977
2,1, 5, 3, 0,18,20.00,30.00,Friday
7,26.8
140,30.65955548295337
141,29.875571076546114
142,30.250288535336897
143,31.414562933864646
144,29.260687492755954
145,28.84351343570207
146,27.956265256889276
2,1, 5, 3, 0,18,30.00,40.00,Friday
7,27.5
140,30.692037860544887
141,29.903416925598287
142,30.306445966721144
143,31.408596781915258
144,29.242334114472479
145,28.8324431322101
146,28.286043706368976
2,1, 5, 3, 0,18,40.00,50.00,Friday
7,28.0
140,30.73843059052776
141,29.946207945328934
142,30.382063411231596
143,31.386679737496704
144,29.21537356195237
145,28.81389084987235
146,28.498099914850305
2,1, 5, 3, 0,18,50.00,60.00,Friday
7,28.3
140,30.77661045982981
141,29.983238960751274
142,30.521060252496647
143,31.350606210629704
144,29.1787855667321
145,28.78650797523722
146,28.650499668695724
2,1, 5, 3, 0,19, 0.00,10.00,Friday
7,28.1
140,29.613213836990309
141,28.820573306669233
142,29.369027208151385
143,31.31142718399158
144,29.14067260609436
145,28.75612718605318
146,28.551571683590806
2,1, 5, 3, 0,19,10.00,20.00,Friday
7,28.4
140,28.75321906054362
141,27.89468615932022
142,28.474405218797103
143,31.251134481194759
144,29.10484699362309
145,28.729197883570973
146,28.71442114926696
2,1, 5, 3, 0,19,20.00,30.00,Friday
7,28.3
140,28.82904789763525
141,27.9622747423711
142,28.53682571564077
143,31.208298378503579
144,29.068119716676564
145,28.69960545335421
146,28.697490007951708
2,1, 5, 3, 0,19,30.00,40.00,Friday
7,28.1
140,28.818981518060018
141,27.950351630405288
142,28.512144315092667
143,31.14075351128502
144,29.0240243068584
145,28.665481906676676
146,28.723070204504894
2,1, 5, 3, 0,19,40.00,50.00,Friday
7,27.9
140,28.643523524721354
141,27.765494834576626
142,28.333593364223029
143,31.062397702632745
144,28.978020346092014
145,28.629105435150973
146,28.663614347047525
2,1, 5, 3, 0,19,50.00,60.00,Friday
7,27.8
140,28.474580209375014
141,27.58133388753211
142,28.161163405404968
143,30.98998968874983
144,28.933831998242977
145,28.594371893839115
146,28.459440438622754
2,1, 5, 3, 0,20, 0.00,10.00,Friday
7,27.7
140,28.38085190025772
141,27.47199466075591
142,28.069239722140347
143,30.922188709670168
144,28.891646338706179
145,28.56102305989378
146,28.382294622150967
2,1, 5, 3, 0,20,10.00,20.00,Friday
7,27.4
140,28.334841129445228
141,27.418766410320303
142,28.03010021737028
143,30.852628637224038
144,28.846651857927986
145,28.52563732053758
146,28.26137990802089
2,1, 5, 3, 0,20,20.00,30.00,Friday
7,27.0
140,28.30876845103485
141,27.406826554033289
142,28.004634849546016
143,30.800219937060779
144,28.804278823149894
145,28.4916240497061
146,27.942103951003408
2,1, 5, 3, 0,20,30.00,40.00,Friday
7,26.9
140,28.258857791176838
141,27.374691606776449
142,27.928679759365978
143,30.719668320080407
144,28.753154824022788
145,28.451611083781289
146,27.843432896657995
2,1, 5, 3, 0,20,40.00,50.00,Friday
7,26.6
140,28.19117403727862
141,27.32103543651532
142,27.83008440231397
143,30.625578759759376
144,28.693256331370763
145,28.40349702882626
146,28.028188775897886
2,1, 5, 3, 0,20,50.00,60.00,Friday
7,26.3
140,28.14900199133726
141,27.289821714326839
142,27.739339416400559
143,30.56190838190249
144,28.641551071464453
145,28.36021535646863
146,27.234536663710779
2,1, 5, 3, 0,21, 0.00,10.00,Friday
7,26.0
140,28.083643534750065
141,27.236856254371824
142,27.62677800972878
143,30.47452172013676
144,28.576613686200657
145,28.306363793482075
146,27.17688495768344
2,1, 5, 3, 0,21,10.00,20.00,Friday
7,26.3
140,28.01908147271686
141,27.183953791242347
142,27.585999526010256
143,30.369948600860974
144,28.515704723570829
145,28.255525429830706
146,27.378721252441065
2,1, 5, 3, 0,21,20.00,30.00,Friday
7,26.1
140,27.986611908956485
141,27.16219334407352
142,27.604345935320244
143,30.30271761076243
144,28.46867653268861
145,28.21259793648622
146,27.72468716142115
2,1, 5, 3, 0,21,30.00,40.00,Friday
7,26.0
140,27.928017445969343
141,27.12107784880063
142,27.603214680981759
143,30.201337853847336
144,28.395249803653994
145,28.154983012643905
146,27.563886793521055
2,1, 5, 3, 0,21,40.00,50.00,Friday
7,26.2
140,27.865335016179679
141,27.081911768040489
142,27.572783364373433
143,30.08251485643107
144,28.316506471797717
145,28.099182641645887
146,27.498388660376944
2,1, 5, 3, 0,21,50.00,60.00,Friday
7,25.9
140,27.79774814401965
141,27.040793084220977
142,27.522815464667816
143,29.973512898949669
144,28.241080767654578
145,28.044360152471087
146,27.320384235431157
2,1, 5, 3, 0,22, 0.00,10.00,Friday
7,26.1
140,27.7446636982986
141,27.0155107653001
142,27.446204578270377
143,29.87386136875036
144,28.17398869559528
145,27.99894811042934
146,27.283527889841939
2,1, 5, 3, 0,22,10.00,20.00,Friday
7,25.9
140,27.69431015411557
141,26.993358687058629
142,27.35684119714594
143,29.774667146346525
144,28.100850366325966
145,27.950779403355836
146,27.10067968670571
2,1, 5, 3, 0,22,20.00,30.00,Friday
7,25.3
140,27.621675443700665
141,26.947876434111668
142,27.25619045147763
143,29.67291314975439
144,28.01272560767783
145,27.887089609196957
146,27.0748929154826
2,1, 5, 3, 0,22,30.00,40.00,Friday
7,25.3
140,27.547868651733905
141,26.897991960623917
142,27.202641175695363
143,29.570089683465498
144,27.929729072988996
145,27.8281350676279
146,27.249803817283206
2,1, 5, 3, 0,22,40.00,50.00,Friday
7,25.4
140,27.488175516497497
141,26.859404236250236
142,27.21397150131902
143,29.467431042619809
144,27.859257550853355
145,27.777563437402884
146,27.009739601466277
2,1, 5, 3, 0,22,50.00,60.00,Friday
7,25.2
140,27.43297006879212
141,26.826122364651647
142,27.20897436140697
143,29.364813878610133
144,27.787952922049177
145,27.719053809337969
146,26.78285514415967
2,1, 5, 3, 0,23, 0.00,10.00,Friday
7,25.1
140,27.403122048117806
141,26.81200283757635
142,27.142403359247895
143,29.294246248987894
144,27.725503065903906
145,27.666876932139439
146,27.348291956377908
2,1, 5, 3, 0,23,10.00,20.00,Friday
7,25.6
140,27.349390066062094
141,26.79125206935496
142,27.09507587125256
143,29.16208195743219
144,27.654473502317616
145,27.6036613082714
146,26.899513168724448
2,1, 5, 3, 0,23,20.00,30.00,Friday
7,25.5
140,27.30020428841396
141,26.771762018266079
142,27.086424363860194
143,29.048496259057136
144,27.585788643089186
145,27.545052321418657
146,26.7487955819404
2,1, 5, 3, 0,23,30.00,40.00,Friday
7,25.0
140,27.263470917320939
141,26.746829967334159
142,27.002005901512438
143,28.985880326763288
144,27.518401466699488
145,27.48819981996541
146,26.381132050832286
2,1, 5, 3, 0,23,40.00,50.00,Friday
7,25.0
140,27.204480075303925
141,26.70865534902865
142,26.931346270102176
143,28.88190340560664
144,27.448624262618833
145,27.421742844606194
146,26.38487563343532
2,1, 5, 3, 0,23,50.00,60.00,Friday
7,25.3
140,27.147173906115758
141,26.678464706404378
142,26.90633669268414
143,28.757318826755858